Starting prologue... Wed Sep 9 17:59:43 CEST 2020
Master node: e0108
Kill all process from other users
Adjust oom killer config
Clearing buffers and caches on the nodes.
Power management available, enabling ondemand governor
End of prologue: Wed Sep  9 17:59:50 CEST 2020
/home/hpc/rzku/phyv025h/Exercise_sheet_1/Exercise_1

     Program PWSCF v.6.4.1 starts on  9Sep2020 at 18: 0: 1 

     This program is part of the open-source Quantum ESPRESSO suite
     for quantum simulation of materials; please cite
         "P. Giannozzi et al., J. Phys.:Condens. Matter 21 395502 (2009);
         "P. Giannozzi et al., J. Phys.:Condens. Matter 29 465901 (2017);
          URL http://www.quantum-espresso.org", 
     in publications or presentations arising from this work. More details at
     http://www.quantum-espresso.org/quote

     Parallel version (MPI & OpenMP), running on      20 processor cores
     Number of MPI processes:                20
     Threads/MPI process:                     1

     MPI processes distributed on     1 nodes
     R & G space division:  proc/nbgrp/npool/nimage =      20
     Reading input from /home/hpc/rzku/phyv025h/Exercise_sheet_1/Exercise_1/1_a/MgO_040.in

     Current dimensions of program PWSCF are:
     Max number of different atomic species (ntypx) = 10
     Max number of k-points (npk) =  40000
     Max angular momentum in pseudopotentials (lmaxx) =  3

     IMPORTANT: XC functional enforced from input :
     Exchange-correlation      = PBE ( 1  4  3  4 0 0)
     Any further DFT definition will be discarded
     Please, verify this is what you really want


     Subspace diagonalization in iterative solution of the eigenvalue problem:
     a serial algorithm will be used

     Found symmetry operation: I + ( -0.5000 -0.5000  0.0000)
     This is a supercell, fractional translations are disabled
     Message from routine setup:
     DEPRECATED: symmetry with ibrav=0, use correct ibrav instead
 
     Parallelization info
     --------------------
     sticks:   dense  smooth     PW     G-vecs:    dense   smooth      PW
     Min          39      39     11                  851      851     129
     Max          40      40     12                  856      856     132
     Sum         797     797    233                17077    17077    2601
 


     bravais-lattice index     =            0
     lattice parameter (alat)  =       7.9557  a.u.
     unit-cell volume          =     503.5503 (a.u.)^3
     number of atoms/cell      =            8
     number of atomic types    =            2
     number of electrons       =        64.00
     number of Kohn-Sham states=           32
     kinetic-energy cutoff     =      40.0000  Ry
     charge density cutoff     =     160.0000  Ry
     convergence threshold     =      1.0E-08
     mixing beta               =       0.7000
     number of iterations used =            8  plain     mixing
     Exchange-correlation      = PBE ( 1  4  3  4 0 0)

     celldm(1)=   7.955747  celldm(2)=   0.000000  celldm(3)=   0.000000
     celldm(4)=   0.000000  celldm(5)=   0.000000  celldm(6)=   0.000000

     crystal axes: (cart. coord. in units of alat)
               a(1) = (   1.000000   0.000000   0.000000 )  
               a(2) = (   0.000000   1.000000   0.000000 )  
               a(3) = (   0.000000   0.000000   1.000000 )  

     reciprocal axes: (cart. coord. in units 2 pi/alat)
               b(1) = (  1.000000  0.000000  0.000000 )  
               b(2) = (  0.000000  1.000000  0.000000 )  
               b(3) = (  0.000000  0.000000  1.000000 )  


     PseudoPot. # 1 for Mg read from file:
     ./Mg.nc.UPF
     MD5 check sum: 4c04d8c6e0476e83eaecaf72fa8acc4d
     Pseudo is Norm-conserving, Zval = 10.0
     Generated using ONCVPSP code by D. R. Hamann
     Using radial grid of 1510 points,  4 beta functions with: 
                l(1) =   0
                l(2) =   0
                l(3) =   1
                l(4) =   1

     PseudoPot. # 2 for O  read from file:
     ./O.nc.UPF
     MD5 check sum: 3e3f909f7470e8921608ab6b1f57bbae
     Pseudo is Norm-conserving + core correction, Zval =  6.0
     Generated using ONCVPSP code by D. R. Hamann
     Using radial grid of  936 points,  5 beta functions with: 
                l(1) =   0
                l(2) =   0
                l(3) =   1
                l(4) =   1
                l(5) =   2

     atomic species   valence    mass     pseudopotential
        Mg            10.00    24.30500     Mg( 1.00)
        O              6.00    15.99900     O ( 1.00)

     48 Sym. Ops., with inversion, found



   Cartesian axes

     site n.     atom                  positions (alat units)
         1           Mg  tau(   1) = (   0.0000000   0.0000000   0.0000000  )
         2           Mg  tau(   2) = (   0.5000000   0.5000000   0.0000000  )
         3           Mg  tau(   3) = (   0.5000000   0.0000000   0.5000000  )
         4           Mg  tau(   4) = (   0.0000000   0.5000000   0.5000000  )
         5           O   tau(   5) = (   0.5000000   0.0000000   0.0000000  )
         6           O   tau(   6) = (   0.0000000   0.5000000   0.0000000  )
         7           O   tau(   7) = (   0.0000000   0.0000000   0.5000000  )
         8           O   tau(   8) = (   0.5000000   0.5000000   0.5000000  )

     number of k points=     4
                       cart. coord. in units 2pi/alat
        k(    1) = (   0.0000000   0.0000000   0.0000000), wk =   0.0740741
        k(    2) = (   0.0000000   0.0000000   0.3333333), wk =   0.4444444
        k(    3) = (   0.0000000   0.3333333   0.3333333), wk =   0.8888889
        k(    4) = (   0.3333333   0.3333333   0.3333333), wk =   0.5925926

     Dense  grid:    17077 G-vectors     FFT dimensions: (  36,  36,  36)

     Estimated max dynamical RAM per process >       4.00 MB

     Estimated total dynamical RAM >      80.08 MB

     Check: negative core charge=   -0.000521

     Initial potential from superposition of free atoms

     starting charge   63.99678, renormalised to   64.00000
     Starting wfcs are   36 randomized atomic wfcs

     total cpu time spent up to now is        0.8 secs

     Self-consistent Calculation

     iteration #  1     ecut=    40.00 Ry     beta= 0.70
     Davidson diagonalization with overlap
     ethr =  1.00E-02,  avg # of iterations =  2.0

     total cpu time spent up to now is        0.9 secs

     total energy              =    -602.33772456 Ry
     Harris-Foulkes estimate   =    -603.53226697 Ry
     estimated scf accuracy    <       1.79684894 Ry

     iteration #  2     ecut=    40.00 Ry     beta= 0.70
     Davidson diagonalization with overlap
     ethr =  2.81E-03,  avg # of iterations =  2.0

     total cpu time spent up to now is        1.0 secs

     total energy              =    -602.68747486 Ry
     Harris-Foulkes estimate   =    -603.13901123 Ry
     estimated scf accuracy    <       0.83410983 Ry

     iteration #  3     ecut=    40.00 Ry     beta= 0.70
     Davidson diagonalization with overlap
     ethr =  1.30E-03,  avg # of iterations =  2.0

     total cpu time spent up to now is        1.1 secs

     total energy              =    -602.89051529 Ry
     Harris-Foulkes estimate   =    -602.89996126 Ry
     estimated scf accuracy    <       0.02872523 Ry

     iteration #  4     ecut=    40.00 Ry     beta= 0.70
     Davidson diagonalization with overlap
     ethr =  4.49E-05,  avg # of iterations =  2.0

     total cpu time spent up to now is        1.3 secs

     total energy              =    -602.89479499 Ry
     Harris-Foulkes estimate   =    -602.89465741 Ry
     estimated scf accuracy    <       0.00039292 Ry

     iteration #  5     ecut=    40.00 Ry     beta= 0.70
     Davidson diagonalization with overlap
     ethr =  6.14E-07,  avg # of iterations =  2.0

     total cpu time spent up to now is        1.3 secs

     total energy              =    -602.89483543 Ry
     Harris-Foulkes estimate   =    -602.89483213 Ry
     estimated scf accuracy    <       0.00000197 Ry

     iteration #  6     ecut=    40.00 Ry     beta= 0.70
     Davidson diagonalization with overlap
     ethr =  3.08E-09,  avg # of iterations =  2.0

     total cpu time spent up to now is        1.4 secs

     total energy              =    -602.89483586 Ry
     Harris-Foulkes estimate   =    -602.89483593 Ry
     estimated scf accuracy    <       0.00000014 Ry

     iteration #  7     ecut=    40.00 Ry     beta= 0.70
     Davidson diagonalization with overlap
     ethr =  2.25E-10,  avg # of iterations =  3.0

     total cpu time spent up to now is        1.6 secs

     total energy              =    -602.89483590 Ry
     Harris-Foulkes estimate   =    -602.89483593 Ry
     estimated scf accuracy    <       0.00000006 Ry

     iteration #  8     ecut=    40.00 Ry     beta= 0.70
     Davidson diagonalization with overlap
     ethr =  8.82E-11,  avg # of iterations =  2.5

     total cpu time spent up to now is        1.7 secs

     End of self-consistent calculation

          k = 0.0000 0.0000 0.0000 (  2109 PWs)   bands (ev):

   -68.3136 -68.2894 -68.2894 -68.2894 -31.5336 -31.5336 -31.5336 -31.3058
   -31.3058 -31.3058 -31.3058 -31.3058 -31.3058 -31.0404 -31.0404 -31.0404
    -9.3929  -7.8854  -7.8854  -7.8854   4.4102   4.4102   4.4102   7.0840
     7.0840   7.0840   7.0840   7.0840   7.0840   8.3440   8.3440   8.3440

          k = 0.0000 0.0000 0.3333 (  2156 PWs)   bands (ev):

   -68.3155 -68.3030 -68.2968 -68.2968 -31.8668 -31.5711 -31.5711 -31.5674
   -31.5674 -31.5477 -31.5477 -31.4340 -31.4340 -31.3415 -31.2050 -31.2050
    -9.0162  -8.2533  -7.8319  -7.8319   4.8786   4.9267   4.9267   6.1788
     6.1788   6.5467   6.5688   6.5689   7.3205   7.3205   7.9588   7.9588

          k = 0.0000 0.3333 0.3333 (  2135 PWs)   bands (ev):

   -68.3055 -68.2996 -68.2996 -68.2942 -31.5641 -31.5641 -31.4859 -31.4759
   -31.4541 -31.4266 -31.3698 -31.3698 -31.3147 -31.3147 -31.3119 -31.1647
    -8.6961  -8.0948  -8.0948  -7.8772   4.7265   4.7265   5.0280   5.4364
     5.5504   6.5677   6.5677   7.2834   7.2834   7.3132   7.4392   7.9801

          k = 0.3333 0.3333 0.3333 (  2151 PWs)   bands (ev):

   -68.3028 -68.3028 -68.3028 -68.2990 -31.5706 -31.5706 -31.5706 -31.5252
   -31.5252 -31.5252 -31.4667 -31.4667 -31.4025 -31.4025 -31.4025 -31.0989
    -8.4367  -8.0293  -8.0293  -8.0292   4.0383   4.0383   4.0383   4.5391
     6.8898   6.8898   6.8898   7.4702   7.4702   7.4702   7.8147   7.8147

     highest occupied level (ev):     8.3440

!    total energy              =    -602.89483591 Ry
     Harris-Foulkes estimate   =    -602.89483591 Ry
     estimated scf accuracy    <          9.7E-10 Ry

     The total energy is the sum of the following terms:

     one-electron contribution =    -284.41227655 Ry
     hartree contribution      =     157.22154126 Ry
     xc contribution           =     -96.45162493 Ry
     ewald contribution        =    -379.25247569 Ry

     convergence has been achieved in   8 iterations

     Forces acting on atoms (cartesian axes, Ry/au):

     atom    1 type  1   force =     0.00000000    0.00000000    0.00000000
     atom    2 type  1   force =     0.00000000   -0.00000000    0.00000000
     atom    3 type  1   force =     0.00000000    0.00000000    0.00000000
     atom    4 type  1   force =     0.00000000    0.00000000    0.00000000
     atom    5 type  2   force =     0.00000000    0.00000000    0.00000000
     atom    6 type  2   force =     0.00000000    0.00000000    0.00000000
     atom    7 type  2   force =     0.00000000   -0.00000000    0.00000000
     atom    8 type  2   force =     0.00000000    0.00000000    0.00000000

     Total force =     0.000000     Total SCF correction =     0.000000

     Writing output data file MgO_040.save/
 
     init_run     :      0.05s CPU      0.14s WALL (       1 calls)
     electrons    :      0.78s CPU      0.97s WALL (       1 calls)
     forces       :      0.02s CPU      0.02s WALL (       1 calls)

     Called by init_run:
     wfcinit      :      0.03s CPU      0.04s WALL (       1 calls)
     potinit      :      0.01s CPU      0.03s WALL (       1 calls)
     hinit0       :      0.01s CPU      0.06s WALL (       1 calls)

     Called by electrons:
     c_bands      :      0.67s CPU      0.76s WALL (       8 calls)
     sum_band     :      0.08s CPU      0.09s WALL (       8 calls)
     v_of_rho     :      0.02s CPU      0.02s WALL (       9 calls)
     mix_rho      :      0.00s CPU      0.01s WALL (       8 calls)

     Called by c_bands:
     init_us_2    :      0.00s CPU      0.01s WALL (      72 calls)
     cegterg      :      0.65s CPU      0.73s WALL (      32 calls)

     Called by sum_band:

     Called by *egterg:
     h_psi        :      0.41s CPU      0.48s WALL (     106 calls)
     g_psi        :      0.00s CPU      0.00s WALL (      70 calls)
     cdiaghg      :      0.20s CPU      0.21s WALL (     102 calls)

     Called by h_psi:
     h_psi:pot    :      0.41s CPU      0.48s WALL (     106 calls)
     h_psi:calbec :      0.02s CPU      0.03s WALL (     106 calls)
     vloc_psi     :      0.37s CPU      0.43s WALL (     106 calls)
     add_vuspsi   :      0.02s CPU      0.02s WALL (     106 calls)

     General routines
     calbec       :      0.03s CPU      0.03s WALL (     122 calls)
     fft          :      0.01s CPU      0.06s WALL (     100 calls)
     ffts         :      0.00s CPU      0.00s WALL (       8 calls)
     fftw         :      0.41s CPU      0.48s WALL (    6580 calls)
 
     Parallel routines
     fft_scatt_xy :      0.04s CPU      0.04s WALL (    6688 calls)
     fft_scatt_yz :      0.24s CPU      0.29s WALL (    6688 calls)
 
     PWSCF        :      1.03s CPU      2.15s WALL

 
   This run was terminated on:  18: 0: 3   9Sep2020            

=------------------------------------------------------------------------------=
   JOB DONE.
=------------------------------------------------------------------------------=

     Program PWSCF v.6.4.1 starts on  9Sep2020 at 18: 0: 4 

     This program is part of the open-source Quantum ESPRESSO suite
     for quantum simulation of materials; please cite
         "P. Giannozzi et al., J. Phys.:Condens. Matter 21 395502 (2009);
         "P. Giannozzi et al., J. Phys.:Condens. Matter 29 465901 (2017);
          URL http://www.quantum-espresso.org", 
     in publications or presentations arising from this work. More details at
     http://www.quantum-espresso.org/quote

     Parallel version (MPI & OpenMP), running on      20 processor cores
     Number of MPI processes:                20
     Threads/MPI process:                     1

     MPI processes distributed on     1 nodes
     R & G space division:  proc/nbgrp/npool/nimage =      20
     Reading input from /home/hpc/rzku/phyv025h/Exercise_sheet_1/Exercise_1/1_a/MgO_045.in

     Current dimensions of program PWSCF are:
     Max number of different atomic species (ntypx) = 10
     Max number of k-points (npk) =  40000
     Max angular momentum in pseudopotentials (lmaxx) =  3

     IMPORTANT: XC functional enforced from input :
     Exchange-correlation      = PBE ( 1  4  3  4 0 0)
     Any further DFT definition will be discarded
     Please, verify this is what you really want


     Subspace diagonalization in iterative solution of the eigenvalue problem:
     a serial algorithm will be used

     Found symmetry operation: I + ( -0.5000 -0.5000  0.0000)
     This is a supercell, fractional translations are disabled
     Message from routine setup:
     DEPRECATED: symmetry with ibrav=0, use correct ibrav instead
 
     Parallelization info
     --------------------
     sticks:   dense  smooth     PW     G-vecs:    dense   smooth      PW
     Min          44      44     13                 1018     1018     155
     Max          46      46     14                 1021     1021     157
     Sum         889     889    261                20377    20377    3119
 


     bravais-lattice index     =            0
     lattice parameter (alat)  =       7.9557  a.u.
     unit-cell volume          =     503.5503 (a.u.)^3
     number of atoms/cell      =            8
     number of atomic types    =            2
     number of electrons       =        64.00
     number of Kohn-Sham states=           32
     kinetic-energy cutoff     =      45.0000  Ry
     charge density cutoff     =     180.0000  Ry
     convergence threshold     =      1.0E-08
     mixing beta               =       0.7000
     number of iterations used =            8  plain     mixing
     Exchange-correlation      = PBE ( 1  4  3  4 0 0)

     celldm(1)=   7.955747  celldm(2)=   0.000000  celldm(3)=   0.000000
     celldm(4)=   0.000000  celldm(5)=   0.000000  celldm(6)=   0.000000

     crystal axes: (cart. coord. in units of alat)
               a(1) = (   1.000000   0.000000   0.000000 )  
               a(2) = (   0.000000   1.000000   0.000000 )  
               a(3) = (   0.000000   0.000000   1.000000 )  

     reciprocal axes: (cart. coord. in units 2 pi/alat)
               b(1) = (  1.000000  0.000000  0.000000 )  
               b(2) = (  0.000000  1.000000  0.000000 )  
               b(3) = (  0.000000  0.000000  1.000000 )  


     PseudoPot. # 1 for Mg read from file:
     ./Mg.nc.UPF
     MD5 check sum: 4c04d8c6e0476e83eaecaf72fa8acc4d
     Pseudo is Norm-conserving, Zval = 10.0
     Generated using ONCVPSP code by D. R. Hamann
     Using radial grid of 1510 points,  4 beta functions with: 
                l(1) =   0
                l(2) =   0
                l(3) =   1
                l(4) =   1

     PseudoPot. # 2 for O  read from file:
     ./O.nc.UPF
     MD5 check sum: 3e3f909f7470e8921608ab6b1f57bbae
     Pseudo is Norm-conserving + core correction, Zval =  6.0
     Generated using ONCVPSP code by D. R. Hamann
     Using radial grid of  936 points,  5 beta functions with: 
                l(1) =   0
                l(2) =   0
                l(3) =   1
                l(4) =   1
                l(5) =   2

     atomic species   valence    mass     pseudopotential
        Mg            10.00    24.30500     Mg( 1.00)
        O              6.00    15.99900     O ( 1.00)

     48 Sym. Ops., with inversion, found



   Cartesian axes

     site n.     atom                  positions (alat units)
         1           Mg  tau(   1) = (   0.0000000   0.0000000   0.0000000  )
         2           Mg  tau(   2) = (   0.5000000   0.5000000   0.0000000  )
         3           Mg  tau(   3) = (   0.5000000   0.0000000   0.5000000  )
         4           Mg  tau(   4) = (   0.0000000   0.5000000   0.5000000  )
         5           O   tau(   5) = (   0.5000000   0.0000000   0.0000000  )
         6           O   tau(   6) = (   0.0000000   0.5000000   0.0000000  )
         7           O   tau(   7) = (   0.0000000   0.0000000   0.5000000  )
         8           O   tau(   8) = (   0.5000000   0.5000000   0.5000000  )

     number of k points=     4
                       cart. coord. in units 2pi/alat
        k(    1) = (   0.0000000   0.0000000   0.0000000), wk =   0.0740741
        k(    2) = (   0.0000000   0.0000000   0.3333333), wk =   0.4444444
        k(    3) = (   0.0000000   0.3333333   0.3333333), wk =   0.8888889
        k(    4) = (   0.3333333   0.3333333   0.3333333), wk =   0.5925926

     Dense  grid:    20377 G-vectors     FFT dimensions: (  36,  36,  36)

     Estimated max dynamical RAM per process >       4.35 MB

     Estimated total dynamical RAM >      86.96 MB

     Check: negative core charge=   -0.000302

     Initial potential from superposition of free atoms

     starting charge   63.99678, renormalised to   64.00000
     Starting wfcs are   36 randomized atomic wfcs

     total cpu time spent up to now is        0.3 secs

     Self-consistent Calculation

     iteration #  1     ecut=    45.00 Ry     beta= 0.70
     Davidson diagonalization with overlap
     ethr =  1.00E-02,  avg # of iterations =  2.0

     total cpu time spent up to now is        0.4 secs

     total energy              =    -605.10372200 Ry
     Harris-Foulkes estimate   =    -606.18394059 Ry
     estimated scf accuracy    <       1.56869206 Ry

     iteration #  2     ecut=    45.00 Ry     beta= 0.70
     Davidson diagonalization with overlap
     ethr =  2.45E-03,  avg # of iterations =  2.0

     total cpu time spent up to now is        0.5 secs

     total energy              =    -605.46014875 Ry
     Harris-Foulkes estimate   =    -605.99219635 Ry
     estimated scf accuracy    <       1.04293847 Ry

     iteration #  3     ecut=    45.00 Ry     beta= 0.70
     Davidson diagonalization with overlap
     ethr =  1.63E-03,  avg # of iterations =  2.0

     total cpu time spent up to now is        0.7 secs

     total energy              =    -605.68689766 Ry
     Harris-Foulkes estimate   =    -605.68917476 Ry
     estimated scf accuracy    <       0.01188061 Ry

     iteration #  4     ecut=    45.00 Ry     beta= 0.70
     Davidson diagonalization with overlap
     ethr =  1.86E-05,  avg # of iterations =  2.0

     total cpu time spent up to now is        0.8 secs

     total energy              =    -605.68844729 Ry
     Harris-Foulkes estimate   =    -605.68833358 Ry
     estimated scf accuracy    <       0.00024996 Ry

     iteration #  5     ecut=    45.00 Ry     beta= 0.70
     Davidson diagonalization with overlap
     ethr =  3.91E-07,  avg # of iterations =  2.0

     total cpu time spent up to now is        0.9 secs

     total energy              =    -605.68847865 Ry
     Harris-Foulkes estimate   =    -605.68847570 Ry
     estimated scf accuracy    <       0.00000291 Ry

     iteration #  6     ecut=    45.00 Ry     beta= 0.70
     Davidson diagonalization with overlap
     ethr =  4.54E-09,  avg # of iterations =  2.8

     total cpu time spent up to now is        1.0 secs

     total energy              =    -605.68847928 Ry
     Harris-Foulkes estimate   =    -605.68847936 Ry
     estimated scf accuracy    <       0.00000021 Ry

     iteration #  7     ecut=    45.00 Ry     beta= 0.70
     Davidson diagonalization with overlap
     ethr =  3.31E-10,  avg # of iterations =  3.0

     total cpu time spent up to now is        1.1 secs

     total energy              =    -605.68847934 Ry
     Harris-Foulkes estimate   =    -605.68847935 Ry
     estimated scf accuracy    <       0.00000005 Ry

     iteration #  8     ecut=    45.00 Ry     beta= 0.70
     Davidson diagonalization with overlap
     ethr =  7.10E-11,  avg # of iterations =  2.5

     total cpu time spent up to now is        1.2 secs

     End of self-consistent calculation

          k = 0.0000 0.0000 0.0000 (  2553 PWs)   bands (ev):

   -66.5388 -66.5272 -66.5272 -66.5272 -31.5793 -31.5793 -31.5793 -31.4573
   -31.4573 -31.4573 -31.3501 -31.3501 -31.3501 -31.3501 -31.3501 -31.3501
    -9.2663  -7.7414  -7.7414  -7.7414   4.2065   4.2065   4.2065   6.9086
     6.9086   6.9086   6.9086   6.9086   6.9086   8.1717   8.1717   8.1717

          k = 0.0000 0.0000 0.3333 (  2601 PWs)   bands (ev):

   -66.5377 -66.5305 -66.5303 -66.5303 -31.6583 -31.6583 -31.5442 -31.5410
   -31.5291 -31.5291 -31.5287 -31.5287 -31.5276 -31.5276 -31.4075 -31.4075
    -8.8854  -8.1175  -7.6918  -7.6918   4.6903   4.6903   4.7317   6.0082
     6.0082   6.4905   6.4905   6.5435   7.1889   7.1889   7.7999   7.7999

          k = 0.0000 0.3333 0.3333 (  2562 PWs)   bands (ev):

   -66.5317 -66.5301 -66.5299 -66.5299 -31.6180 -31.5951 -31.5339 -31.5339
   -31.4974 -31.4974 -31.4155 -31.3905 -31.3734 -31.3380 -31.3380 -31.2694
    -8.5581  -7.9571  -7.9571  -7.7438   4.6212   4.6212   4.9324   5.1745
     5.5176   6.3746   6.3746   7.1998   7.1998   7.2317   7.3011   7.9104

          k = 0.3333 0.3333 0.3333 (  2542 PWs)   bands (ev):

   -66.5296 -66.5296 -66.5296 -66.5287 -31.6432 -31.6432 -31.6432 -31.4278
   -31.4278 -31.4278 -31.4036 -31.2712 -31.2712 -31.2712 -31.2264 -31.2264
    -8.3046  -7.8967  -7.8967  -7.8967   3.9657   3.9657   3.9657   4.4695
     6.7737   6.7737   6.7737   7.3991   7.3991   7.3992   7.7426   7.7426

     highest occupied level (ev):     8.1717

!    total energy              =    -605.68847934 Ry
     Harris-Foulkes estimate   =    -605.68847935 Ry
     estimated scf accuracy    <          9.3E-10 Ry

     The total energy is the sum of the following terms:

     one-electron contribution =    -290.40360007 Ry
     hartree contribution      =     161.13738659 Ry
     xc contribution           =     -97.16979019 Ry
     ewald contribution        =    -379.25247569 Ry

     convergence has been achieved in   8 iterations

     Forces acting on atoms (cartesian axes, Ry/au):

     atom    1 type  1   force =     0.00000000    0.00000000    0.00000000
     atom    2 type  1   force =     0.00000000    0.00000000    0.00000000
     atom    3 type  1   force =     0.00000000    0.00000000    0.00000000
     atom    4 type  1   force =     0.00000000    0.00000000   -0.00000000
     atom    5 type  2   force =     0.00000000    0.00000000    0.00000000
     atom    6 type  2   force =     0.00000000    0.00000000    0.00000000
     atom    7 type  2   force =     0.00000000    0.00000000    0.00000000
     atom    8 type  2   force =     0.00000000    0.00000000    0.00000000

     Total force =     0.000000     Total SCF correction =     0.000000

     Writing output data file MgO_045.save/
 
     init_run     :      0.07s CPU      0.10s WALL (       1 calls)
     electrons    :      0.87s CPU      0.98s WALL (       1 calls)
     forces       :      0.02s CPU      0.02s WALL (       1 calls)

     Called by init_run:
     wfcinit      :      0.04s CPU      0.04s WALL (       1 calls)
     potinit      :      0.01s CPU      0.03s WALL (       1 calls)
     hinit0       :      0.01s CPU      0.02s WALL (       1 calls)

     Called by electrons:
     c_bands      :      0.76s CPU      0.79s WALL (       8 calls)
     sum_band     :      0.09s CPU      0.09s WALL (       8 calls)
     v_of_rho     :      0.02s CPU      0.02s WALL (       9 calls)
     mix_rho      :      0.00s CPU      0.01s WALL (       8 calls)

     Called by c_bands:
     init_us_2    :      0.01s CPU      0.01s WALL (      72 calls)
     cegterg      :      0.73s CPU      0.76s WALL (      32 calls)

     Called by sum_band:

     Called by *egterg:
     h_psi        :      0.47s CPU      0.50s WALL (     109 calls)
     g_psi        :      0.00s CPU      0.00s WALL (      73 calls)
     cdiaghg      :      0.22s CPU      0.22s WALL (     105 calls)

     Called by h_psi:
     h_psi:pot    :      0.47s CPU      0.49s WALL (     109 calls)
     h_psi:calbec :      0.03s CPU      0.03s WALL (     109 calls)
     vloc_psi     :      0.42s CPU      0.44s WALL (     109 calls)
     add_vuspsi   :      0.02s CPU      0.02s WALL (     109 calls)

     General routines
     calbec       :      0.03s CPU      0.04s WALL (     125 calls)
     fft          :      0.01s CPU      0.02s WALL (     100 calls)
     ffts         :      0.00s CPU      0.00s WALL (       8 calls)
     fftw         :      0.46s CPU      0.49s WALL (    6498 calls)
 
     Parallel routines
     fft_scatt_xy :      0.04s CPU      0.04s WALL (    6606 calls)
     fft_scatt_yz :      0.29s CPU      0.31s WALL (    6606 calls)
 
     PWSCF        :      1.27s CPU      1.83s WALL

 
   This run was terminated on:  18: 0: 6   9Sep2020            

=------------------------------------------------------------------------------=
   JOB DONE.
=------------------------------------------------------------------------------=

     Program PWSCF v.6.4.1 starts on  9Sep2020 at 18: 0: 7 

     This program is part of the open-source Quantum ESPRESSO suite
     for quantum simulation of materials; please cite
         "P. Giannozzi et al., J. Phys.:Condens. Matter 21 395502 (2009);
         "P. Giannozzi et al., J. Phys.:Condens. Matter 29 465901 (2017);
          URL http://www.quantum-espresso.org", 
     in publications or presentations arising from this work. More details at
     http://www.quantum-espresso.org/quote

     Parallel version (MPI & OpenMP), running on      20 processor cores
     Number of MPI processes:                20
     Threads/MPI process:                     1

     MPI processes distributed on     1 nodes
     R & G space division:  proc/nbgrp/npool/nimage =      20
     Reading input from /home/hpc/rzku/phyv025h/Exercise_sheet_1/Exercise_1/1_a/MgO_050.in

     Current dimensions of program PWSCF are:
     Max number of different atomic species (ntypx) = 10
     Max number of k-points (npk) =  40000
     Max angular momentum in pseudopotentials (lmaxx) =  3

     IMPORTANT: XC functional enforced from input :
     Exchange-correlation      = PBE ( 1  4  3  4 0 0)
     Any further DFT definition will be discarded
     Please, verify this is what you really want


     Subspace diagonalization in iterative solution of the eigenvalue problem:
     a serial algorithm will be used

     Found symmetry operation: I + ( -0.5000 -0.5000  0.0000)
     This is a supercell, fractional translations are disabled
     Message from routine setup:
     DEPRECATED: symmetry with ibrav=0, use correct ibrav instead
 
     Parallelization info
     --------------------
     sticks:   dense  smooth     PW     G-vecs:    dense   smooth      PW
     Min          50      50     14                 1192     1192     184
     Max          51      51     15                 1194     1194     187
     Sum        1005    1005    293                23871    23871    3695
 


     bravais-lattice index     =            0
     lattice parameter (alat)  =       7.9557  a.u.
     unit-cell volume          =     503.5503 (a.u.)^3
     number of atoms/cell      =            8
     number of atomic types    =            2
     number of electrons       =        64.00
     number of Kohn-Sham states=           32
     kinetic-energy cutoff     =      50.0000  Ry
     charge density cutoff     =     200.0000  Ry
     convergence threshold     =      1.0E-08
     mixing beta               =       0.7000
     number of iterations used =            8  plain     mixing
     Exchange-correlation      = PBE ( 1  4  3  4 0 0)

     celldm(1)=   7.955747  celldm(2)=   0.000000  celldm(3)=   0.000000
     celldm(4)=   0.000000  celldm(5)=   0.000000  celldm(6)=   0.000000

     crystal axes: (cart. coord. in units of alat)
               a(1) = (   1.000000   0.000000   0.000000 )  
               a(2) = (   0.000000   1.000000   0.000000 )  
               a(3) = (   0.000000   0.000000   1.000000 )  

     reciprocal axes: (cart. coord. in units 2 pi/alat)
               b(1) = (  1.000000  0.000000  0.000000 )  
               b(2) = (  0.000000  1.000000  0.000000 )  
               b(3) = (  0.000000  0.000000  1.000000 )  


     PseudoPot. # 1 for Mg read from file:
     ./Mg.nc.UPF
     MD5 check sum: 4c04d8c6e0476e83eaecaf72fa8acc4d
     Pseudo is Norm-conserving, Zval = 10.0
     Generated using ONCVPSP code by D. R. Hamann
     Using radial grid of 1510 points,  4 beta functions with: 
                l(1) =   0
                l(2) =   0
                l(3) =   1
                l(4) =   1

     PseudoPot. # 2 for O  read from file:
     ./O.nc.UPF
     MD5 check sum: 3e3f909f7470e8921608ab6b1f57bbae
     Pseudo is Norm-conserving + core correction, Zval =  6.0
     Generated using ONCVPSP code by D. R. Hamann
     Using radial grid of  936 points,  5 beta functions with: 
                l(1) =   0
                l(2) =   0
                l(3) =   1
                l(4) =   1
                l(5) =   2

     atomic species   valence    mass     pseudopotential
        Mg            10.00    24.30500     Mg( 1.00)
        O              6.00    15.99900     O ( 1.00)

     48 Sym. Ops., with inversion, found



   Cartesian axes

     site n.     atom                  positions (alat units)
         1           Mg  tau(   1) = (   0.0000000   0.0000000   0.0000000  )
         2           Mg  tau(   2) = (   0.5000000   0.5000000   0.0000000  )
         3           Mg  tau(   3) = (   0.5000000   0.0000000   0.5000000  )
         4           Mg  tau(   4) = (   0.0000000   0.5000000   0.5000000  )
         5           O   tau(   5) = (   0.5000000   0.0000000   0.0000000  )
         6           O   tau(   6) = (   0.0000000   0.5000000   0.0000000  )
         7           O   tau(   7) = (   0.0000000   0.0000000   0.5000000  )
         8           O   tau(   8) = (   0.5000000   0.5000000   0.5000000  )

     number of k points=     4
                       cart. coord. in units 2pi/alat
        k(    1) = (   0.0000000   0.0000000   0.0000000), wk =   0.0740741
        k(    2) = (   0.0000000   0.0000000   0.3333333), wk =   0.4444444
        k(    3) = (   0.0000000   0.3333333   0.3333333), wk =   0.8888889
        k(    4) = (   0.3333333   0.3333333   0.3333333), wk =   0.5925926

     Dense  grid:    23871 G-vectors     FFT dimensions: (  36,  36,  36)

     Estimated max dynamical RAM per process >       4.70 MB

     Estimated total dynamical RAM >      93.99 MB

     Check: negative core charge=   -0.000172

     Initial potential from superposition of free atoms

     starting charge   63.99678, renormalised to   64.00000
     Starting wfcs are   36 randomized atomic wfcs

     total cpu time spent up to now is        0.3 secs

     Self-consistent Calculation

     iteration #  1     ecut=    50.00 Ry     beta= 0.70
     Davidson diagonalization with overlap
     ethr =  1.00E-02,  avg # of iterations =  2.0

     total cpu time spent up to now is        0.4 secs

     total energy              =    -606.55162517 Ry
     Harris-Foulkes estimate   =    -607.61700992 Ry
     estimated scf accuracy    <       1.51499501 Ry

     iteration #  2     ecut=    50.00 Ry     beta= 0.70
     Davidson diagonalization with overlap
     ethr =  2.37E-03,  avg # of iterations =  2.0

     total cpu time spent up to now is        0.6 secs

     total energy              =    -606.92006304 Ry
     Harris-Foulkes estimate   =    -607.50044190 Ry
     estimated scf accuracy    <       1.16661037 Ry

     iteration #  3     ecut=    50.00 Ry     beta= 0.70
     Davidson diagonalization with overlap
     ethr =  1.82E-03,  avg # of iterations =  2.0

     total cpu time spent up to now is        0.7 secs

     total energy              =    -607.16017990 Ry
     Harris-Foulkes estimate   =    -607.16105688 Ry
     estimated scf accuracy    <       0.00791042 Ry

     iteration #  4     ecut=    50.00 Ry     beta= 0.70
     Davidson diagonalization with overlap
     ethr =  1.24E-05,  avg # of iterations =  2.0

     total cpu time spent up to now is        0.8 secs

     total energy              =    -607.16124031 Ry
     Harris-Foulkes estimate   =    -607.16116163 Ry
     estimated scf accuracy    <       0.00010798 Ry

     iteration #  5     ecut=    50.00 Ry     beta= 0.70
     Davidson diagonalization with overlap
     ethr =  1.69E-07,  avg # of iterations =  2.2

     total cpu time spent up to now is        0.9 secs

     total energy              =    -607.16126083 Ry
     Harris-Foulkes estimate   =    -607.16125876 Ry
     estimated scf accuracy    <       0.00000487 Ry

     iteration #  6     ecut=    50.00 Ry     beta= 0.70
     Davidson diagonalization with overlap
     ethr =  7.61E-09,  avg # of iterations =  3.0

     total cpu time spent up to now is        1.0 secs

     total energy              =    -607.16126206 Ry
     Harris-Foulkes estimate   =    -607.16126243 Ry
     estimated scf accuracy    <       0.00000106 Ry

     iteration #  7     ecut=    50.00 Ry     beta= 0.70
     Davidson diagonalization with overlap
     ethr =  1.66E-09,  avg # of iterations =  2.0

     total cpu time spent up to now is        1.1 secs

     total energy              =    -607.16126217 Ry
     Harris-Foulkes estimate   =    -607.16126223 Ry
     estimated scf accuracy    <       0.00000015 Ry

     iteration #  8     ecut=    50.00 Ry     beta= 0.70
     Davidson diagonalization with overlap
     ethr =  2.41E-10,  avg # of iterations =  2.0

     total cpu time spent up to now is        1.2 secs

     End of self-consistent calculation

          k = 0.0000 0.0000 0.0000 (  2969 PWs)   bands (ev):

   -65.4718 -65.4612 -65.4612 -65.4612 -31.3477 -31.3477 -31.3477 -31.3322
   -31.3322 -31.3322 -31.3322 -31.3322 -31.3322 -31.3020 -31.3020 -31.3020
    -9.1902  -7.6555  -7.6555  -7.6555   4.1085   4.1085   4.1085   6.8194
     6.8194   6.8194   6.8194   6.8194   6.8194   8.1326   8.1326   8.1326

          k = 0.0000 0.0000 0.3333 (  3018 PWs)   bands (ev):

   -65.4700 -65.4640 -65.4618 -65.4618 -31.4817 -31.4025 -31.3891 -31.3891
   -31.3799 -31.3799 -31.3728 -31.3728 -31.3472 -31.3472 -31.3182 -31.3182
    -8.8120  -8.0420  -7.6054  -7.6054   4.6155   4.6155   4.7062   5.9057
     5.9057   6.4578   6.4578   6.5093   7.1089   7.1089   7.7493   7.7493

          k = 0.0000 0.3333 0.3333 (  2984 PWs)   bands (ev):

   -65.4671 -65.4634 -65.4634 -65.4617 -31.4035 -31.4035 -31.3675 -31.3510
   -31.3437 -31.3437 -31.3194 -31.3140 -31.3087 -31.3078 -31.3078 -31.2832
    -8.4904  -7.8815  -7.8815  -7.6589   4.5966   4.5966   4.9153   5.1121
     5.4868   6.3042   6.3042   7.1300   7.1300   7.1509   7.2272   7.8243

          k = 0.3333 0.3333 0.3333 (  3013 PWs)   bands (ev):

   -65.4664 -65.4636 -65.4636 -65.4636 -31.3943 -31.3867 -31.3867 -31.3867
   -31.3666 -31.3666 -31.3666 -31.3631 -31.3631 -31.3491 -31.3491 -31.3491
    -8.2409  -7.8180  -7.8180  -7.8180   3.9594   3.9594   3.9594   4.4415
     6.7121   6.7121   6.7121   7.2944   7.2944   7.2944   7.6349   7.6349

     highest occupied level (ev):     8.1326

!    total energy              =    -607.16126220 Ry
     Harris-Foulkes estimate   =    -607.16126220 Ry
     estimated scf accuracy    <          5.4E-10 Ry

     The total energy is the sum of the following terms:

     one-electron contribution =    -293.78882994 Ry
     hartree contribution      =     163.47239088 Ry
     xc contribution           =     -97.59234745 Ry
     ewald contribution        =    -379.25247569 Ry

     convergence has been achieved in   8 iterations

     Forces acting on atoms (cartesian axes, Ry/au):

     atom    1 type  1   force =     0.00000000    0.00000000    0.00000000
     atom    2 type  1   force =     0.00000000    0.00000000    0.00000000
     atom    3 type  1   force =     0.00000000    0.00000000    0.00000000
     atom    4 type  1   force =     0.00000000    0.00000000    0.00000000
     atom    5 type  2   force =     0.00000000    0.00000000    0.00000000
     atom    6 type  2   force =     0.00000000   -0.00000000    0.00000000
     atom    7 type  2   force =     0.00000000    0.00000000    0.00000000
     atom    8 type  2   force =     0.00000000    0.00000000   -0.00000000

     Total force =     0.000000     Total SCF correction =     0.000000

     Writing output data file MgO_050.save/
 
     init_run     :      0.07s CPU      0.10s WALL (       1 calls)
     electrons    :      0.89s CPU      1.01s WALL (       1 calls)
     forces       :      0.02s CPU      0.02s WALL (       1 calls)

     Called by init_run:
     wfcinit      :      0.04s CPU      0.05s WALL (       1 calls)
     potinit      :      0.01s CPU      0.02s WALL (       1 calls)
     hinit0       :      0.01s CPU      0.02s WALL (       1 calls)

     Called by electrons:
     c_bands      :      0.77s CPU      0.80s WALL (       8 calls)
     sum_band     :      0.09s CPU      0.10s WALL (       8 calls)
     v_of_rho     :      0.02s CPU      0.02s WALL (       9 calls)
     mix_rho      :      0.00s CPU      0.01s WALL (       8 calls)

     Called by c_bands:
     init_us_2    :      0.01s CPU      0.01s WALL (      72 calls)
     cegterg      :      0.73s CPU      0.77s WALL (      32 calls)

     Called by sum_band:

     Called by *egterg:
     h_psi        :      0.47s CPU      0.51s WALL (     105 calls)
     g_psi        :      0.00s CPU      0.00s WALL (      69 calls)
     cdiaghg      :      0.21s CPU      0.21s WALL (     101 calls)

     Called by h_psi:
     h_psi:pot    :      0.47s CPU      0.51s WALL (     105 calls)
     h_psi:calbec :      0.03s CPU      0.03s WALL (     105 calls)
     vloc_psi     :      0.42s CPU      0.45s WALL (     105 calls)
     add_vuspsi   :      0.02s CPU      0.02s WALL (     105 calls)

     General routines
     calbec       :      0.04s CPU      0.04s WALL (     121 calls)
     fft          :      0.02s CPU      0.02s WALL (     100 calls)
     ffts         :      0.00s CPU      0.00s WALL (       8 calls)
     fftw         :      0.46s CPU      0.50s WALL (    6512 calls)
 
     Parallel routines
     fft_scatt_xy :      0.04s CPU      0.04s WALL (    6620 calls)
     fft_scatt_yz :      0.29s CPU      0.31s WALL (    6620 calls)
 
     PWSCF        :      1.20s CPU      1.71s WALL

 
   This run was terminated on:  18: 0: 8   9Sep2020            

=------------------------------------------------------------------------------=
   JOB DONE.
=------------------------------------------------------------------------------=

     Program PWSCF v.6.4.1 starts on  9Sep2020 at 18: 0: 9 

     This program is part of the open-source Quantum ESPRESSO suite
     for quantum simulation of materials; please cite
         "P. Giannozzi et al., J. Phys.:Condens. Matter 21 395502 (2009);
         "P. Giannozzi et al., J. Phys.:Condens. Matter 29 465901 (2017);
          URL http://www.quantum-espresso.org", 
     in publications or presentations arising from this work. More details at
     http://www.quantum-espresso.org/quote

     Parallel version (MPI & OpenMP), running on      20 processor cores
     Number of MPI processes:                20
     Threads/MPI process:                     1

     MPI processes distributed on     1 nodes
     R & G space division:  proc/nbgrp/npool/nimage =      20
     Reading input from /home/hpc/rzku/phyv025h/Exercise_sheet_1/Exercise_1/1_a/MgO_055.in

     Current dimensions of program PWSCF are:
     Max number of different atomic species (ntypx) = 10
     Max number of k-points (npk) =  40000
     Max angular momentum in pseudopotentials (lmaxx) =  3

     IMPORTANT: XC functional enforced from input :
     Exchange-correlation      = PBE ( 1  4  3  4 0 0)
     Any further DFT definition will be discarded
     Please, verify this is what you really want


     Subspace diagonalization in iterative solution of the eigenvalue problem:
     a serial algorithm will be used

     Found symmetry operation: I + ( -0.5000 -0.5000  0.0000)
     This is a supercell, fractional translations are disabled
     Message from routine setup:
     DEPRECATED: symmetry with ibrav=0, use correct ibrav instead
 
     Parallelization info
     --------------------
     sticks:   dense  smooth     PW     G-vecs:    dense   smooth      PW
     Min          55      55     15                 1381     1381     205
     Max          56      56     16                 1384     1384     208
     Sum        1101    1101    305                27633    27633    4139
 


     bravais-lattice index     =            0
     lattice parameter (alat)  =       7.9557  a.u.
     unit-cell volume          =     503.5503 (a.u.)^3
     number of atoms/cell      =            8
     number of atomic types    =            2
     number of electrons       =        64.00
     number of Kohn-Sham states=           32
     kinetic-energy cutoff     =      55.0000  Ry
     charge density cutoff     =     220.0000  Ry
     convergence threshold     =      1.0E-08
     mixing beta               =       0.7000
     number of iterations used =            8  plain     mixing
     Exchange-correlation      = PBE ( 1  4  3  4 0 0)

     celldm(1)=   7.955747  celldm(2)=   0.000000  celldm(3)=   0.000000
     celldm(4)=   0.000000  celldm(5)=   0.000000  celldm(6)=   0.000000

     crystal axes: (cart. coord. in units of alat)
               a(1) = (   1.000000   0.000000   0.000000 )  
               a(2) = (   0.000000   1.000000   0.000000 )  
               a(3) = (   0.000000   0.000000   1.000000 )  

     reciprocal axes: (cart. coord. in units 2 pi/alat)
               b(1) = (  1.000000  0.000000  0.000000 )  
               b(2) = (  0.000000  1.000000  0.000000 )  
               b(3) = (  0.000000  0.000000  1.000000 )  


     PseudoPot. # 1 for Mg read from file:
     ./Mg.nc.UPF
     MD5 check sum: 4c04d8c6e0476e83eaecaf72fa8acc4d
     Pseudo is Norm-conserving, Zval = 10.0
     Generated using ONCVPSP code by D. R. Hamann
     Using radial grid of 1510 points,  4 beta functions with: 
                l(1) =   0
                l(2) =   0
                l(3) =   1
                l(4) =   1

     PseudoPot. # 2 for O  read from file:
     ./O.nc.UPF
     MD5 check sum: 3e3f909f7470e8921608ab6b1f57bbae
     Pseudo is Norm-conserving + core correction, Zval =  6.0
     Generated using ONCVPSP code by D. R. Hamann
     Using radial grid of  936 points,  5 beta functions with: 
                l(1) =   0
                l(2) =   0
                l(3) =   1
                l(4) =   1
                l(5) =   2

     atomic species   valence    mass     pseudopotential
        Mg            10.00    24.30500     Mg( 1.00)
        O              6.00    15.99900     O ( 1.00)

     48 Sym. Ops., with inversion, found



   Cartesian axes

     site n.     atom                  positions (alat units)
         1           Mg  tau(   1) = (   0.0000000   0.0000000   0.0000000  )
         2           Mg  tau(   2) = (   0.5000000   0.5000000   0.0000000  )
         3           Mg  tau(   3) = (   0.5000000   0.0000000   0.5000000  )
         4           Mg  tau(   4) = (   0.0000000   0.5000000   0.5000000  )
         5           O   tau(   5) = (   0.5000000   0.0000000   0.0000000  )
         6           O   tau(   6) = (   0.0000000   0.5000000   0.0000000  )
         7           O   tau(   7) = (   0.0000000   0.0000000   0.5000000  )
         8           O   tau(   8) = (   0.5000000   0.5000000   0.5000000  )

     number of k points=     4
                       cart. coord. in units 2pi/alat
        k(    1) = (   0.0000000   0.0000000   0.0000000), wk =   0.0740741
        k(    2) = (   0.0000000   0.0000000   0.3333333), wk =   0.4444444
        k(    3) = (   0.0000000   0.3333333   0.3333333), wk =   0.8888889
        k(    4) = (   0.3333333   0.3333333   0.3333333), wk =   0.5925926

     Dense  grid:    27633 G-vectors     FFT dimensions: (  40,  40,  40)

     Estimated max dynamical RAM per process >       5.10 MB

     Estimated total dynamical RAM >     102.04 MB

     Check: negative core charge=   -0.000084

     Initial potential from superposition of free atoms

     starting charge   63.99678, renormalised to   64.00000
     Starting wfcs are   36 randomized atomic wfcs

     total cpu time spent up to now is        0.3 secs

     Self-consistent Calculation

     iteration #  1     ecut=    55.00 Ry     beta= 0.70
     Davidson diagonalization with overlap
     ethr =  1.00E-02,  avg # of iterations =  2.0

     total cpu time spent up to now is        0.5 secs

     total energy              =    -607.24834179 Ry
     Harris-Foulkes estimate   =    -608.32974231 Ry
     estimated scf accuracy    <       1.52029336 Ry

     iteration #  2     ecut=    55.00 Ry     beta= 0.70
     Davidson diagonalization with overlap
     ethr =  2.38E-03,  avg # of iterations =  2.8

     total cpu time spent up to now is        0.6 secs

     total energy              =    -607.63007790 Ry
     Harris-Foulkes estimate   =    -608.24876334 Ry
     estimated scf accuracy    <       1.26016570 Ry

     iteration #  3     ecut=    55.00 Ry     beta= 0.70
     Davidson diagonalization with overlap
     ethr =  1.97E-03,  avg # of iterations =  2.0

     total cpu time spent up to now is        0.7 secs

     total energy              =    -607.88274777 Ry
     Harris-Foulkes estimate   =    -607.88321113 Ry
     estimated scf accuracy    <       0.00664860 Ry

     iteration #  4     ecut=    55.00 Ry     beta= 0.70
     Davidson diagonalization with overlap
     ethr =  1.04E-05,  avg # of iterations =  2.0

     total cpu time spent up to now is        0.8 secs

     total energy              =    -607.88382073 Ry
     Harris-Foulkes estimate   =    -607.88379989 Ry
     estimated scf accuracy    <       0.00003813 Ry

     iteration #  5     ecut=    55.00 Ry     beta= 0.70
     Davidson diagonalization with overlap
     ethr =  5.96E-08,  avg # of iterations =  3.0

     total cpu time spent up to now is        1.0 secs

     total energy              =    -607.88383261 Ry
     Harris-Foulkes estimate   =    -607.88382910 Ry
     estimated scf accuracy    <       0.00000386 Ry

     iteration #  6     ecut=    55.00 Ry     beta= 0.70
     Davidson diagonalization with overlap
     ethr =  6.03E-09,  avg # of iterations =  3.0

     total cpu time spent up to now is        1.1 secs

     total energy              =    -607.88383317 Ry
     Harris-Foulkes estimate   =    -607.88383416 Ry
     estimated scf accuracy    <       0.00000240 Ry

     iteration #  7     ecut=    55.00 Ry     beta= 0.70
     Davidson diagonalization with overlap
     ethr =  3.75E-09,  avg # of iterations =  2.8

     total cpu time spent up to now is        1.2 secs

     total energy              =    -607.88383357 Ry
     Harris-Foulkes estimate   =    -607.88383361 Ry
     estimated scf accuracy    <       0.00000008 Ry

     iteration #  8     ecut=    55.00 Ry     beta= 0.70
     Davidson diagonalization with overlap
     ethr =  1.27E-10,  avg # of iterations =  2.0

     total cpu time spent up to now is        1.3 secs

     End of self-consistent calculation

          k = 0.0000 0.0000 0.0000 (  3431 PWs)   bands (ev):

   -64.8610 -64.8493 -64.8493 -64.8493 -31.2719 -31.2719 -31.2719 -31.2244
   -31.2244 -31.2244 -31.2052 -31.2052 -31.2052 -31.2052 -31.2052 -31.2052
    -9.1536  -7.6123  -7.6123  -7.6123   4.0759   4.0759   4.0759   6.7835
     6.7835   6.7835   6.7835   6.7835   6.7835   8.0803   8.0803   8.0803

          k = 0.0000 0.0000 0.3333 (  3499 PWs)   bands (ev):

   -64.8580 -64.8524 -64.8497 -64.8497 -31.2793 -31.2793 -31.2748 -31.2748
   -31.2736 -31.2736 -31.2543 -31.2527 -31.2527 -31.2489 -31.2453 -31.2453
    -8.7735  -8.0011  -7.5648  -7.5648   4.5916   4.5916   4.6901   5.8861
     5.8861   6.4299   6.4299   6.5125   7.0548   7.0548   7.7080   7.7080

          k = 0.0000 0.3333 0.3333 (  3437 PWs)   bands (ev):

   -64.8557 -64.8516 -64.8515 -64.8503 -31.2746 -31.2601 -31.2449 -31.2449
   -31.2366 -31.2268 -31.2266 -31.2266 -31.2264 -31.2264 -31.2132 -31.2049
    -8.4530  -7.8433  -7.8433  -7.6219   4.5820   4.5820   4.8925   5.0717
     5.4831   6.2766   6.2766   7.0946   7.0946   7.1121   7.1783   7.7872

          k = 0.3333 0.3333 0.3333 (  3464 PWs)   bands (ev):

   -64.8544 -64.8516 -64.8516 -64.8516 -31.2714 -31.2714 -31.2714 -31.2447
   -31.2447 -31.2447 -31.2443 -31.2396 -31.2396 -31.2335 -31.2335 -31.2335
    -8.2049  -7.7835  -7.7835  -7.7835   3.9438   3.9438   3.9438   4.4376
     6.6790   6.6791   6.6791   7.2695   7.2695   7.2696   7.6069   7.6069

     highest occupied level (ev):     8.0803

!    total energy              =    -607.88383359 Ry
     Harris-Foulkes estimate   =    -607.88383359 Ry
     estimated scf accuracy    <          2.7E-09 Ry

     The total energy is the sum of the following terms:

     one-electron contribution =    -295.59656866 Ry
     hartree contribution      =     164.78203725 Ry
     xc contribution           =     -97.81682648 Ry
     ewald contribution        =    -379.25247570 Ry

     convergence has been achieved in   8 iterations

     Forces acting on atoms (cartesian axes, Ry/au):

     atom    1 type  1   force =     0.00000000    0.00000000    0.00000000
     atom    2 type  1   force =     0.00000000    0.00000000   -0.00000000
     atom    3 type  1   force =     0.00000000    0.00000000    0.00000000
     atom    4 type  1   force =     0.00000000    0.00000000    0.00000000
     atom    5 type  2   force =     0.00000000    0.00000000    0.00000000
     atom    6 type  2   force =     0.00000000   -0.00000000   -0.00000000
     atom    7 type  2   force =     0.00000000    0.00000000   -0.00000000
     atom    8 type  2   force =     0.00000000    0.00000000    0.00000000

     Total force =     0.000000     Total SCF correction =     0.000000

     Writing output data file MgO_055.save/
 
     init_run     :      0.08s CPU      0.10s WALL (       1 calls)
     electrons    :      0.97s CPU      1.13s WALL (       1 calls)
     forces       :      0.03s CPU      0.03s WALL (       1 calls)

     Called by init_run:
     wfcinit      :      0.04s CPU      0.05s WALL (       1 calls)
     potinit      :      0.01s CPU      0.02s WALL (       1 calls)
     hinit0       :      0.02s CPU      0.02s WALL (       1 calls)

     Called by electrons:
     c_bands      :      0.84s CPU      0.87s WALL (       8 calls)
     sum_band     :      0.10s CPU      0.10s WALL (       8 calls)
     v_of_rho     :      0.02s CPU      0.03s WALL (       9 calls)
     mix_rho      :      0.00s CPU      0.01s WALL (       8 calls)

     Called by c_bands:
     init_us_2    :      0.01s CPU      0.01s WALL (      72 calls)
     cegterg      :      0.80s CPU      0.84s WALL (      32 calls)

     Called by sum_band:

     Called by *egterg:
     h_psi        :      0.50s CPU      0.54s WALL (     114 calls)
     g_psi        :      0.00s CPU      0.00s WALL (      78 calls)
     cdiaghg      :      0.23s CPU      0.24s WALL (     110 calls)

     Called by h_psi:
     h_psi:pot    :      0.50s CPU      0.54s WALL (     114 calls)
     h_psi:calbec :      0.04s CPU      0.04s WALL (     114 calls)
     vloc_psi     :      0.44s CPU      0.47s WALL (     114 calls)
     add_vuspsi   :      0.03s CPU      0.03s WALL (     114 calls)

     General routines
     calbec       :      0.04s CPU      0.04s WALL (     130 calls)
     fft          :      0.02s CPU      0.02s WALL (     100 calls)
     ffts         :      0.00s CPU      0.00s WALL (       8 calls)
     fftw         :      0.49s CPU      0.52s WALL (    6482 calls)
 
     Parallel routines
     fft_scatt_xy :      0.04s CPU      0.05s WALL (    6590 calls)
     fft_scatt_yz :      0.30s CPU      0.32s WALL (    6590 calls)
 
     PWSCF        :      1.31s CPU      1.89s WALL

 
   This run was terminated on:  18: 0:11   9Sep2020            

=------------------------------------------------------------------------------=
   JOB DONE.
=------------------------------------------------------------------------------=

     Program PWSCF v.6.4.1 starts on  9Sep2020 at 18: 0:12 

     This program is part of the open-source Quantum ESPRESSO suite
     for quantum simulation of materials; please cite
         "P. Giannozzi et al., J. Phys.:Condens. Matter 21 395502 (2009);
         "P. Giannozzi et al., J. Phys.:Condens. Matter 29 465901 (2017);
          URL http://www.quantum-espresso.org", 
     in publications or presentations arising from this work. More details at
     http://www.quantum-espresso.org/quote

     Parallel version (MPI & OpenMP), running on      20 processor cores
     Number of MPI processes:                20
     Threads/MPI process:                     1

     MPI processes distributed on     1 nodes
     R & G space division:  proc/nbgrp/npool/nimage =      20
     Reading input from /home/hpc/rzku/phyv025h/Exercise_sheet_1/Exercise_1/1_a/MgO_060.in

     Current dimensions of program PWSCF are:
     Max number of different atomic species (ntypx) = 10
     Max number of k-points (npk) =  40000
     Max angular momentum in pseudopotentials (lmaxx) =  3

     IMPORTANT: XC functional enforced from input :
     Exchange-correlation      = PBE ( 1  4  3  4 0 0)
     Any further DFT definition will be discarded
     Please, verify this is what you really want


     Subspace diagonalization in iterative solution of the eigenvalue problem:
     a serial algorithm will be used

     Found symmetry operation: I + ( -0.5000 -0.5000  0.0000)
     This is a supercell, fractional translations are disabled
     Message from routine setup:
     DEPRECATED: symmetry with ibrav=0, use correct ibrav instead
 
     Parallelization info
     --------------------
     sticks:   dense  smooth     PW     G-vecs:    dense   smooth      PW
     Min          60      60     17                 1572     1572     233
     Max          61      61     18                 1577     1577     236
     Sum        1201    1201    341                31463    31463    4697
 


     bravais-lattice index     =            0
     lattice parameter (alat)  =       7.9557  a.u.
     unit-cell volume          =     503.5503 (a.u.)^3
     number of atoms/cell      =            8
     number of atomic types    =            2
     number of electrons       =        64.00
     number of Kohn-Sham states=           32
     kinetic-energy cutoff     =      60.0000  Ry
     charge density cutoff     =     240.0000  Ry
     convergence threshold     =      1.0E-08
     mixing beta               =       0.7000
     number of iterations used =            8  plain     mixing
     Exchange-correlation      = PBE ( 1  4  3  4 0 0)

     celldm(1)=   7.955747  celldm(2)=   0.000000  celldm(3)=   0.000000
     celldm(4)=   0.000000  celldm(5)=   0.000000  celldm(6)=   0.000000

     crystal axes: (cart. coord. in units of alat)
               a(1) = (   1.000000   0.000000   0.000000 )  
               a(2) = (   0.000000   1.000000   0.000000 )  
               a(3) = (   0.000000   0.000000   1.000000 )  

     reciprocal axes: (cart. coord. in units 2 pi/alat)
               b(1) = (  1.000000  0.000000  0.000000 )  
               b(2) = (  0.000000  1.000000  0.000000 )  
               b(3) = (  0.000000  0.000000  1.000000 )  


     PseudoPot. # 1 for Mg read from file:
     ./Mg.nc.UPF
     MD5 check sum: 4c04d8c6e0476e83eaecaf72fa8acc4d
     Pseudo is Norm-conserving, Zval = 10.0
     Generated using ONCVPSP code by D. R. Hamann
     Using radial grid of 1510 points,  4 beta functions with: 
                l(1) =   0
                l(2) =   0
                l(3) =   1
                l(4) =   1

     PseudoPot. # 2 for O  read from file:
     ./O.nc.UPF
     MD5 check sum: 3e3f909f7470e8921608ab6b1f57bbae
     Pseudo is Norm-conserving + core correction, Zval =  6.0
     Generated using ONCVPSP code by D. R. Hamann
     Using radial grid of  936 points,  5 beta functions with: 
                l(1) =   0
                l(2) =   0
                l(3) =   1
                l(4) =   1
                l(5) =   2

     atomic species   valence    mass     pseudopotential
        Mg            10.00    24.30500     Mg( 1.00)
        O              6.00    15.99900     O ( 1.00)

     48 Sym. Ops., with inversion, found



   Cartesian axes

     site n.     atom                  positions (alat units)
         1           Mg  tau(   1) = (   0.0000000   0.0000000   0.0000000  )
         2           Mg  tau(   2) = (   0.5000000   0.5000000   0.0000000  )
         3           Mg  tau(   3) = (   0.5000000   0.0000000   0.5000000  )
         4           Mg  tau(   4) = (   0.0000000   0.5000000   0.5000000  )
         5           O   tau(   5) = (   0.5000000   0.0000000   0.0000000  )
         6           O   tau(   6) = (   0.0000000   0.5000000   0.0000000  )
         7           O   tau(   7) = (   0.0000000   0.0000000   0.5000000  )
         8           O   tau(   8) = (   0.5000000   0.5000000   0.5000000  )

     number of k points=     4
                       cart. coord. in units 2pi/alat
        k(    1) = (   0.0000000   0.0000000   0.0000000), wk =   0.0740741
        k(    2) = (   0.0000000   0.0000000   0.3333333), wk =   0.4444444
        k(    3) = (   0.0000000   0.3333333   0.3333333), wk =   0.8888889
        k(    4) = (   0.3333333   0.3333333   0.3333333), wk =   0.5925926

     Dense  grid:    31463 G-vectors     FFT dimensions: (  40,  40,  40)

     Estimated max dynamical RAM per process >       5.47 MB

     Estimated total dynamical RAM >     109.30 MB

     Check: negative core charge=   -0.000042

     Initial potential from superposition of free atoms

     starting charge   63.99678, renormalised to   64.00000
     Starting wfcs are   36 randomized atomic wfcs

     total cpu time spent up to now is        0.3 secs

     Self-consistent Calculation

     iteration #  1     ecut=    60.00 Ry     beta= 0.70
     Davidson diagonalization with overlap
     ethr =  1.00E-02,  avg # of iterations =  2.0

     total cpu time spent up to now is        0.4 secs

     total energy              =    -607.55168023 Ry
     Harris-Foulkes estimate   =    -608.65423197 Ry
     estimated scf accuracy    <       1.54108677 Ry

     iteration #  2     ecut=    60.00 Ry     beta= 0.70
     Davidson diagonalization with overlap
     ethr =  2.41E-03,  avg # of iterations =  2.8

     total cpu time spent up to now is        0.6 secs

     total energy              =    -607.94384525 Ry
     Harris-Foulkes estimate   =    -608.58894968 Ry
     estimated scf accuracy    <       1.32212852 Ry

     iteration #  3     ecut=    60.00 Ry     beta= 0.70
     Davidson diagonalization with overlap
     ethr =  2.07E-03,  avg # of iterations =  2.0

     total cpu time spent up to now is        0.7 secs

     total energy              =    -608.20618835 Ry
     Harris-Foulkes estimate   =    -608.20658424 Ry
     estimated scf accuracy    <       0.00634810 Ry

     iteration #  4     ecut=    60.00 Ry     beta= 0.70
     Davidson diagonalization with overlap
     ethr =  9.92E-06,  avg # of iterations =  2.0

     total cpu time spent up to now is        0.8 secs

     total energy              =    -608.20738483 Ry
     Harris-Foulkes estimate   =    -608.20740080 Ry
     estimated scf accuracy    <       0.00006483 Ry

     iteration #  5     ecut=    60.00 Ry     beta= 0.70
     Davidson diagonalization with overlap
     ethr =  1.01E-07,  avg # of iterations =  2.0

     total cpu time spent up to now is        1.0 secs

     total energy              =    -608.20739473 Ry
     Harris-Foulkes estimate   =    -608.20739070 Ry
     estimated scf accuracy    <       0.00000527 Ry

     iteration #  6     ecut=    60.00 Ry     beta= 0.70
     Davidson diagonalization with overlap
     ethr =  8.23E-09,  avg # of iterations =  2.8

     total cpu time spent up to now is        1.1 secs

     total energy              =    -608.20739531 Ry
     Harris-Foulkes estimate   =    -608.20739624 Ry
     estimated scf accuracy    <       0.00000210 Ry

     iteration #  7     ecut=    60.00 Ry     beta= 0.70
     Davidson diagonalization with overlap
     ethr =  3.29E-09,  avg # of iterations =  2.8

     total cpu time spent up to now is        1.2 secs

     total energy              =    -608.20739568 Ry
     Harris-Foulkes estimate   =    -608.20739571 Ry
     estimated scf accuracy    <       0.00000006 Ry

     iteration #  8     ecut=    60.00 Ry     beta= 0.70
     Davidson diagonalization with overlap
     ethr =  9.79E-11,  avg # of iterations =  2.0

     total cpu time spent up to now is        1.3 secs

     End of self-consistent calculation

          k = 0.0000 0.0000 0.0000 (  3911 PWs)   bands (ev):

   -64.5376 -64.5263 -64.5263 -64.5263 -31.1914 -31.1914 -31.1914 -31.1577
   -31.1577 -31.1577 -31.1577 -31.1577 -31.1577 -31.1201 -31.1201 -31.1201
    -9.1341  -7.5910  -7.5910  -7.5910   4.0485   4.0485   4.0485   6.7559
     6.7559   6.7559   6.7559   6.7559   6.7559   8.0882   8.0882   8.0882

          k = 0.0000 0.0000 0.3333 (  3972 PWs)   bands (ev):

   -64.5348 -64.5291 -64.5263 -64.5263 -31.2059 -31.1938 -31.1938 -31.1749
   -31.1749 -31.1634 -31.1634 -31.1555 -31.1555 -31.1441 -31.1349 -31.1349
    -8.7549  -7.9815  -7.5433  -7.5433   4.5633   4.5633   4.6713   5.8721
     5.8721   6.4273   6.4273   6.5087   7.0465   7.0465   7.7063   7.7063

          k = 0.0000 0.3333 0.3333 (  3922 PWs)   bands (ev):

   -64.5326 -64.5284 -64.5284 -64.5270 -31.1905 -31.1905 -31.1795 -31.1774
   -31.1676 -31.1548 -31.1548 -31.1391 -31.1375 -31.1335 -31.1335 -31.1173
    -8.4354  -7.8242  -7.8242  -7.6017   4.5691   4.5691   4.8822   5.0569
     5.4706   6.2611   6.2611   7.0856   7.0856   7.1050   7.1674   7.7803

          k = 0.3333 0.3333 0.3333 (  3953 PWs)   bands (ev):

   -64.5312 -64.5284 -64.5284 -64.5284 -31.2088 -31.2088 -31.2088 -31.1951
   -31.1495 -31.1495 -31.1495 -31.1451 -31.1451 -31.1451 -31.1231 -31.1231
    -8.1878  -7.7649  -7.7649  -7.7649   3.9350   3.9350   3.9350   4.4277
     6.6657   6.6657   6.6657   7.2588   7.2588   7.2588   7.5992   7.5992

     highest occupied level (ev):     8.0882

!    total energy              =    -608.20739569 Ry
     Harris-Foulkes estimate   =    -608.20739569 Ry
     estimated scf accuracy    <          4.5E-09 Ry

     The total energy is the sum of the following terms:

     one-electron contribution =    -296.49310286 Ry
     hartree contribution      =     165.46375338 Ry
     xc contribution           =     -97.92557051 Ry
     ewald contribution        =    -379.25247570 Ry

     convergence has been achieved in   8 iterations

     Forces acting on atoms (cartesian axes, Ry/au):

     atom    1 type  1   force =     0.00000000    0.00000000    0.00000000
     atom    2 type  1   force =     0.00000000    0.00000000    0.00000000
     atom    3 type  1   force =     0.00000000    0.00000000    0.00000000
     atom    4 type  1   force =     0.00000000    0.00000000    0.00000000
     atom    5 type  2   force =     0.00000000    0.00000000    0.00000000
     atom    6 type  2   force =     0.00000000    0.00000000    0.00000000
     atom    7 type  2   force =     0.00000000    0.00000000    0.00000000
     atom    8 type  2   force =     0.00000000    0.00000000    0.00000000

     Total force =     0.000000     Total SCF correction =     0.000000

     Writing output data file MgO_060.save/
 
     init_run     :      0.09s CPU      0.10s WALL (       1 calls)
     electrons    :      1.00s CPU      1.09s WALL (       1 calls)
     forces       :      0.02s CPU      0.02s WALL (       1 calls)

     Called by init_run:
     wfcinit      :      0.05s CPU      0.05s WALL (       1 calls)
     potinit      :      0.01s CPU      0.02s WALL (       1 calls)
     hinit0       :      0.02s CPU      0.02s WALL (       1 calls)

     Called by electrons:
     c_bands      :      0.87s CPU      0.90s WALL (       8 calls)
     sum_band     :      0.10s CPU      0.11s WALL (       8 calls)
     v_of_rho     :      0.03s CPU      0.03s WALL (       9 calls)
     mix_rho      :      0.01s CPU      0.01s WALL (       8 calls)

     Called by c_bands:
     init_us_2    :      0.01s CPU      0.01s WALL (      72 calls)
     cegterg      :      0.82s CPU      0.85s WALL (      32 calls)

     Called by sum_band:

     Called by *egterg:
     h_psi        :      0.54s CPU      0.56s WALL (     109 calls)
     g_psi        :      0.00s CPU      0.00s WALL (      73 calls)
     cdiaghg      :      0.22s CPU      0.22s WALL (     105 calls)

     Called by h_psi:
     h_psi:pot    :      0.53s CPU      0.56s WALL (     109 calls)
     h_psi:calbec :      0.04s CPU      0.04s WALL (     109 calls)
     vloc_psi     :      0.47s CPU      0.49s WALL (     109 calls)
     add_vuspsi   :      0.03s CPU      0.03s WALL (     109 calls)

     General routines
     calbec       :      0.04s CPU      0.05s WALL (     125 calls)
     fft          :      0.02s CPU      0.02s WALL (     100 calls)
     ffts         :      0.00s CPU      0.00s WALL (       8 calls)
     fftw         :      0.51s CPU      0.54s WALL (    6464 calls)
 
     Parallel routines
     fft_scatt_xy :      0.05s CPU      0.05s WALL (    6572 calls)
     fft_scatt_yz :      0.32s CPU      0.34s WALL (    6572 calls)
 
     PWSCF        :      1.33s CPU      1.84s WALL

 
   This run was terminated on:  18: 0:14   9Sep2020            

=------------------------------------------------------------------------------=
   JOB DONE.
=------------------------------------------------------------------------------=

     Program PWSCF v.6.4.1 starts on  9Sep2020 at 18: 0:15 

     This program is part of the open-source Quantum ESPRESSO suite
     for quantum simulation of materials; please cite
         "P. Giannozzi et al., J. Phys.:Condens. Matter 21 395502 (2009);
         "P. Giannozzi et al., J. Phys.:Condens. Matter 29 465901 (2017);
          URL http://www.quantum-espresso.org", 
     in publications or presentations arising from this work. More details at
     http://www.quantum-espresso.org/quote

     Parallel version (MPI & OpenMP), running on      20 processor cores
     Number of MPI processes:                20
     Threads/MPI process:                     1

     MPI processes distributed on     1 nodes
     R & G space division:  proc/nbgrp/npool/nimage =      20
     Reading input from /home/hpc/rzku/phyv025h/Exercise_sheet_1/Exercise_1/1_a/MgO_065.in

     Current dimensions of program PWSCF are:
     Max number of different atomic species (ntypx) = 10
     Max number of k-points (npk) =  40000
     Max angular momentum in pseudopotentials (lmaxx) =  3

     IMPORTANT: XC functional enforced from input :
     Exchange-correlation      = PBE ( 1  4  3  4 0 0)
     Any further DFT definition will be discarded
     Please, verify this is what you really want


     Subspace diagonalization in iterative solution of the eigenvalue problem:
     a serial algorithm will be used

     Found symmetry operation: I + ( -0.5000 -0.5000  0.0000)
     This is a supercell, fractional translations are disabled
     Message from routine setup:
     DEPRECATED: symmetry with ibrav=0, use correct ibrav instead
 
     Parallelization info
     --------------------
     sticks:   dense  smooth     PW     G-vecs:    dense   smooth      PW
     Min          65      65     18                 1777     1777     261
     Max          66      66     20                 1782     1782     264
     Sum        1313    1313    365                35585    35585    5257
 


     bravais-lattice index     =            0
     lattice parameter (alat)  =       7.9557  a.u.
     unit-cell volume          =     503.5503 (a.u.)^3
     number of atoms/cell      =            8
     number of atomic types    =            2
     number of electrons       =        64.00
     number of Kohn-Sham states=           32
     kinetic-energy cutoff     =      65.0000  Ry
     charge density cutoff     =     260.0000  Ry
     convergence threshold     =      1.0E-08
     mixing beta               =       0.7000
     number of iterations used =            8  plain     mixing
     Exchange-correlation      = PBE ( 1  4  3  4 0 0)

     celldm(1)=   7.955747  celldm(2)=   0.000000  celldm(3)=   0.000000
     celldm(4)=   0.000000  celldm(5)=   0.000000  celldm(6)=   0.000000

     crystal axes: (cart. coord. in units of alat)
               a(1) = (   1.000000   0.000000   0.000000 )  
               a(2) = (   0.000000   1.000000   0.000000 )  
               a(3) = (   0.000000   0.000000   1.000000 )  

     reciprocal axes: (cart. coord. in units 2 pi/alat)
               b(1) = (  1.000000  0.000000  0.000000 )  
               b(2) = (  0.000000  1.000000  0.000000 )  
               b(3) = (  0.000000  0.000000  1.000000 )  


     PseudoPot. # 1 for Mg read from file:
     ./Mg.nc.UPF
     MD5 check sum: 4c04d8c6e0476e83eaecaf72fa8acc4d
     Pseudo is Norm-conserving, Zval = 10.0
     Generated using ONCVPSP code by D. R. Hamann
     Using radial grid of 1510 points,  4 beta functions with: 
                l(1) =   0
                l(2) =   0
                l(3) =   1
                l(4) =   1

     PseudoPot. # 2 for O  read from file:
     ./O.nc.UPF
     MD5 check sum: 3e3f909f7470e8921608ab6b1f57bbae
     Pseudo is Norm-conserving + core correction, Zval =  6.0
     Generated using ONCVPSP code by D. R. Hamann
     Using radial grid of  936 points,  5 beta functions with: 
                l(1) =   0
                l(2) =   0
                l(3) =   1
                l(4) =   1
                l(5) =   2

     atomic species   valence    mass     pseudopotential
        Mg            10.00    24.30500     Mg( 1.00)
        O              6.00    15.99900     O ( 1.00)

     48 Sym. Ops., with inversion, found



   Cartesian axes

     site n.     atom                  positions (alat units)
         1           Mg  tau(   1) = (   0.0000000   0.0000000   0.0000000  )
         2           Mg  tau(   2) = (   0.5000000   0.5000000   0.0000000  )
         3           Mg  tau(   3) = (   0.5000000   0.0000000   0.5000000  )
         4           Mg  tau(   4) = (   0.0000000   0.5000000   0.5000000  )
         5           O   tau(   5) = (   0.5000000   0.0000000   0.0000000  )
         6           O   tau(   6) = (   0.0000000   0.5000000   0.0000000  )
         7           O   tau(   7) = (   0.0000000   0.0000000   0.5000000  )
         8           O   tau(   8) = (   0.5000000   0.5000000   0.5000000  )

     number of k points=     4
                       cart. coord. in units 2pi/alat
        k(    1) = (   0.0000000   0.0000000   0.0000000), wk =   0.0740741
        k(    2) = (   0.0000000   0.0000000   0.3333333), wk =   0.4444444
        k(    3) = (   0.0000000   0.3333333   0.3333333), wk =   0.8888889
        k(    4) = (   0.3333333   0.3333333   0.3333333), wk =   0.5925926

     Dense  grid:    35585 G-vectors     FFT dimensions: (  45,  45,  45)

     Estimated max dynamical RAM per process >       6.04 MB

     Estimated total dynamical RAM >     120.72 MB

     Check: negative core charge=   -0.000019

     Initial potential from superposition of free atoms

     starting charge   63.99678, renormalised to   64.00000
     Starting wfcs are   36 randomized atomic wfcs

     total cpu time spent up to now is        0.3 secs

     Self-consistent Calculation

     iteration #  1     ecut=    65.00 Ry     beta= 0.70
     Davidson diagonalization with overlap
     ethr =  1.00E-02,  avg # of iterations =  2.0

     total cpu time spent up to now is        0.5 secs

     total energy              =    -607.68264037 Ry
     Harris-Foulkes estimate   =    -608.79234493 Ry
     estimated scf accuracy    <       1.54702611 Ry

     iteration #  2     ecut=    65.00 Ry     beta= 0.70
     Davidson diagonalization with overlap
     ethr =  2.42E-03,  avg # of iterations =  2.8

     total cpu time spent up to now is        0.7 secs

     total energy              =    -608.07580834 Ry
     Harris-Foulkes estimate   =    -608.72831107 Ry
     estimated scf accuracy    <       1.33920791 Ry

     iteration #  3     ecut=    65.00 Ry     beta= 0.70
     Davidson diagonalization with overlap
     ethr =  2.09E-03,  avg # of iterations =  2.0

     total cpu time spent up to now is        0.8 secs

     total energy              =    -608.34100254 Ry
     Harris-Foulkes estimate   =    -608.34148915 Ry
     estimated scf accuracy    <       0.00632855 Ry

     iteration #  4     ecut=    65.00 Ry     beta= 0.70
     Davidson diagonalization with overlap
     ethr =  9.89E-06,  avg # of iterations =  2.0

     total cpu time spent up to now is        1.0 secs

     total energy              =    -608.34226944 Ry
     Harris-Foulkes estimate   =    -608.34230036 Ry
     estimated scf accuracy    <       0.00008501 Ry

     iteration #  5     ecut=    65.00 Ry     beta= 0.70
     Davidson diagonalization with overlap
     ethr =  1.33E-07,  avg # of iterations =  1.8

     total cpu time spent up to now is        1.1 secs

     total energy              =    -608.34227703 Ry
     Harris-Foulkes estimate   =    -608.34227455 Ry
     estimated scf accuracy    <       0.00000782 Ry

     iteration #  6     ecut=    65.00 Ry     beta= 0.70
     Davidson diagonalization with overlap
     ethr =  1.22E-08,  avg # of iterations =  2.0

     total cpu time spent up to now is        1.3 secs

     total energy              =    -608.34227821 Ry
     Harris-Foulkes estimate   =    -608.34227869 Ry
     estimated scf accuracy    <       0.00000114 Ry

     iteration #  7     ecut=    65.00 Ry     beta= 0.70
     Davidson diagonalization with overlap
     ethr =  1.78E-09,  avg # of iterations =  2.2

     total cpu time spent up to now is        1.5 secs

     total energy              =    -608.34227828 Ry
     Harris-Foulkes estimate   =    -608.34227838 Ry
     estimated scf accuracy    <       0.00000021 Ry

     iteration #  8     ecut=    65.00 Ry     beta= 0.70
     Davidson diagonalization with overlap
     ethr =  3.25E-10,  avg # of iterations =  2.0

     total cpu time spent up to now is        1.6 secs

     total energy              =    -608.34227830 Ry
     Harris-Foulkes estimate   =    -608.34227831 Ry
     estimated scf accuracy    <       0.00000002 Ry

     iteration #  9     ecut=    65.00 Ry     beta= 0.70
     Davidson diagonalization with overlap
     ethr =  3.06E-11,  avg # of iterations =  2.0

     total cpu time spent up to now is        1.8 secs

     End of self-consistent calculation

          k = 0.0000 0.0000 0.0000 (  4457 PWs)   bands (ev):

   -64.3802 -64.3691 -64.3691 -64.3681 -31.1537 -31.1537 -31.1537 -31.0979
   -31.0979 -31.0979 -31.0978 -31.0978 -31.0978 -31.0772 -31.0772 -31.0772
    -9.1258  -7.5815  -7.5813  -7.5813   4.0365   4.0365   4.0365   6.7475
     6.7475   6.7475   6.7480   6.7480   6.7480   8.0764   8.0764   8.0764

          k = 0.0000 0.0000 0.3333 (  4492 PWs)   bands (ev):

   -64.3773 -64.3716 -64.3690 -64.3683 -31.1428 -31.1428 -31.1330 -31.1155
   -31.1155 -31.1073 -31.1071 -31.0980 -31.0932 -31.0932 -31.0830 -31.0830
    -8.7465  -7.9725  -7.5336  -7.5335   4.5573   4.5573   4.6691   5.8634
     5.8634   6.4224   6.4228   6.5041   7.0379   7.0379   7.6967   7.6967

          k = 0.0000 0.3333 0.3333 (  4438 PWs)   bands (ev):

   -64.3752 -64.3712 -64.3707 -64.3693 -31.1349 -31.1347 -31.1332 -31.1304
   -31.1119 -31.1029 -31.1027 -31.0959 -31.0882 -31.0879 -31.0849 -31.0761
    -8.4268  -7.8155  -7.8153  -7.5928   4.5650   4.5651   4.8771   5.0467
     5.4697   6.2528   6.2532   7.0765   7.0766   7.0925   7.1569   7.7700

          k = 0.3333 0.3333 0.3333 (  4452 PWs)   bands (ev):

   -64.3738 -64.3712 -64.3712 -64.3702 -31.1542 -31.1539 -31.1539 -31.1388
   -31.0950 -31.0950 -31.0946 -31.0870 -31.0869 -31.0869 -31.0776 -31.0776
    -8.1795  -7.7563  -7.7561  -7.7561   3.9324   3.9325   3.9325   4.4269
     6.6588   6.6591   6.6591   7.2518   7.2518   7.2521   7.5901   7.5901

     highest occupied level (ev):     8.0764

!    total energy              =    -608.34227830 Ry
     Harris-Foulkes estimate   =    -608.34227830 Ry
     estimated scf accuracy    <          1.5E-09 Ry

     The total energy is the sum of the following terms:

     one-electron contribution =    -296.90538589 Ry
     hartree contribution      =     165.78669512 Ry
     xc contribution           =     -97.97111183 Ry
     ewald contribution        =    -379.25247569 Ry

     convergence has been achieved in   9 iterations

     Forces acting on atoms (cartesian axes, Ry/au):

     atom    1 type  1   force =     0.00000000    0.00000000    0.00000000
     atom    2 type  1   force =     0.00000000    0.00000000    0.00000000
     atom    3 type  1   force =     0.00000000    0.00000000    0.00000000
     atom    4 type  1   force =     0.00000000    0.00000000    0.00000000
     atom    5 type  2   force =     0.00000000    0.00000000   -0.00000000
[...]
     Harris-Foulkes estimate   =    -608.40795861 Ry
     estimated scf accuracy    <       0.00000005 Ry

     iteration #  9     ecut=   105.00 Ry     beta= 0.70
     Davidson diagonalization with overlap
     ethr =  8.20E-11,  avg # of iterations =  2.0

     total cpu time spent up to now is        2.6 secs

     End of self-consistent calculation

          k = 0.0000 0.0000 0.0000 (  9093 PWs)   bands (ev):

   -64.2786 -64.2671 -64.2671 -64.2671 -31.1042 -31.1042 -31.1042 -31.0601
   -31.0601 -31.0601 -31.0601 -31.0601 -31.0601 -31.0314 -31.0314 -31.0314
    -9.1224  -7.5771  -7.5771  -7.5771   4.0282   4.0282   4.0282   6.7371
     6.7371   6.7371   6.7371   6.7371   6.7371   8.0729   8.0729   8.0729

          k = 0.0000 0.0000 0.3333 (  9130 PWs)   bands (ev):

   -64.2757 -64.2700 -64.2671 -64.2671 -31.0931 -31.0931 -31.0878 -31.0711
   -31.0711 -31.0616 -31.0616 -31.0529 -31.0529 -31.0514 -31.0385 -31.0385
    -8.7430  -7.9686  -7.5295  -7.5295   4.5493   4.5493   4.6649   5.8547
     5.8547   6.4180   6.4180   6.5017   7.0281   7.0281   7.6900   7.6900

          k = 0.0000 0.3333 0.3333 (  9150 PWs)   bands (ev):

   -64.2736 -64.2693 -64.2693 -64.2678 -31.0923 -31.0923 -31.0873 -31.0830
   -31.0732 -31.0629 -31.0629 -31.0488 -31.0478 -31.0478 -31.0466 -31.0345
    -8.4237  -7.8118  -7.8118  -7.5889   4.5601   4.5601   4.8727   5.0391
     5.4660   6.2425   6.2426   7.0697   7.0697   7.0876   7.1471   7.7646

          k = 0.3333 0.3333 0.3333 (  9180 PWs)   bands (ev):

   -64.2721 -64.2692 -64.2692 -64.2692 -31.1071 -31.1071 -31.1071 -31.0959
   -31.0520 -31.0520 -31.0520 -31.0452 -31.0452 -31.0452 -31.0380 -31.0380
    -8.1762  -7.7525  -7.7525  -7.7525   3.9292   3.9292   3.9292   4.4240
     6.6525   6.6525   6.6525   7.2455   7.2455   7.2455   7.5835   7.5835

     highest occupied level (ev):     8.0729

!    total energy              =    -608.40795859 Ry
     Harris-Foulkes estimate   =    -608.40795860 Ry
     estimated scf accuracy    <          2.5E-09 Ry

     The total energy is the sum of the following terms:

     one-electron contribution =    -297.14607618 Ry
     hartree contribution      =     165.98191602 Ry
     xc contribution           =     -97.99132275 Ry
     ewald contribution        =    -379.25247568 Ry

     convergence has been achieved in   9 iterations

     Forces acting on atoms (cartesian axes, Ry/au):

     atom    1 type  1   force =     0.00000000    0.00000000    0.00000000
     atom    2 type  1   force =     0.00000000    0.00000000    0.00000000
     atom    3 type  1   force =     0.00000000    0.00000000    0.00000000
     atom    4 type  1   force =     0.00000000    0.00000000   -0.00000000
     atom    5 type  2   force =     0.00000000    0.00000000    0.00000000
     atom    6 type  2   force =     0.00000000    0.00000000   -0.00000000
     atom    7 type  2   force =     0.00000000    0.00000000    0.00000000
     atom    8 type  2   force =     0.00000000    0.00000000    0.00000000

     Total force =     0.000000     Total SCF correction =     0.000000

     Writing output data file MgO_105.save/
 
     init_run     :      0.19s CPU      0.21s WALL (       1 calls)
     electrons    :      2.15s CPU      2.26s WALL (       1 calls)
     forces       :      0.05s CPU      0.05s WALL (       1 calls)

     Called by init_run:
     wfcinit      :      0.09s CPU      0.10s WALL (       1 calls)
     potinit      :      0.02s CPU      0.03s WALL (       1 calls)
     hinit0       :      0.03s CPU      0.04s WALL (       1 calls)

     Called by electrons:
     c_bands      :      1.81s CPU      1.85s WALL (       9 calls)
     sum_band     :      0.26s CPU      0.26s WALL (       9 calls)
     v_of_rho     :      0.07s CPU      0.07s WALL (      10 calls)
     mix_rho      :      0.01s CPU      0.01s WALL (       9 calls)

     Called by c_bands:
     init_us_2    :      0.03s CPU      0.03s WALL (      80 calls)
     cegterg      :      1.70s CPU      1.74s WALL (      36 calls)

     Called by sum_band:

     Called by *egterg:
     h_psi        :      1.33s CPU      1.37s WALL (     112 calls)
     g_psi        :      0.01s CPU      0.01s WALL (      72 calls)
     cdiaghg      :      0.22s CPU      0.22s WALL (     108 calls)

     Called by h_psi:
     h_psi:pot    :      1.32s CPU      1.36s WALL (     112 calls)
     h_psi:calbec :      0.10s CPU      0.10s WALL (     112 calls)
     vloc_psi     :      1.14s CPU      1.18s WALL (     112 calls)
     add_vuspsi   :      0.08s CPU      0.08s WALL (     112 calls)

     General routines
     calbec       :      0.11s CPU      0.11s WALL (     128 calls)
     fft          :      0.05s CPU      0.05s WALL (     110 calls)
     ffts         :      0.00s CPU      0.00s WALL (       9 calls)
     fftw         :      1.27s CPU      1.30s WALL (    7238 calls)
 
     Parallel routines
     fft_scatt_xy :      0.14s CPU      0.14s WALL (    7357 calls)
     fft_scatt_yz :      0.56s CPU      0.58s WALL (    7357 calls)
 
     PWSCF        :      2.78s CPU      3.41s WALL

 
   This run was terminated on:  18: 0:47   9Sep2020            

=------------------------------------------------------------------------------=
   JOB DONE.
=------------------------------------------------------------------------------=

     Program PWSCF v.6.4.1 starts on  9Sep2020 at 18: 0:48 

     This program is part of the open-source Quantum ESPRESSO suite
     for quantum simulation of materials; please cite
         "P. Giannozzi et al., J. Phys.:Condens. Matter 21 395502 (2009);
         "P. Giannozzi et al., J. Phys.:Condens. Matter 29 465901 (2017);
          URL http://www.quantum-espresso.org", 
     in publications or presentations arising from this work. More details at
     http://www.quantum-espresso.org/quote

     Parallel version (MPI & OpenMP), running on      20 processor cores
     Number of MPI processes:                20
     Threads/MPI process:                     1

     MPI processes distributed on     1 nodes
     R & G space division:  proc/nbgrp/npool/nimage =      20
     Reading input from /home/hpc/rzku/phyv025h/Exercise_sheet_1/Exercise_1/1_a/MgO_110.in

     Current dimensions of program PWSCF are:
     Max number of different atomic species (ntypx) = 10
     Max number of k-points (npk) =  40000
     Max angular momentum in pseudopotentials (lmaxx) =  3

     IMPORTANT: XC functional enforced from input :
     Exchange-correlation      = PBE ( 1  4  3  4 0 0)
     Any further DFT definition will be discarded
     Please, verify this is what you really want


     Subspace diagonalization in iterative solution of the eigenvalue problem:
     a serial algorithm will be used

     Found symmetry operation: I + ( -0.5000 -0.5000  0.0000)
     This is a supercell, fractional translations are disabled
     Message from routine setup:
     DEPRECATED: symmetry with ibrav=0, use correct ibrav instead
 
     Parallelization info
     --------------------
     sticks:   dense  smooth     PW     G-vecs:    dense   smooth      PW
     Min         110     110     29                 3922     3922     551
     Max         111     111     30                 3927     3927     556
     Sum        2217    2217    593                78517    78517   11075
 


     bravais-lattice index     =            0
     lattice parameter (alat)  =       7.9557  a.u.
     unit-cell volume          =     503.5503 (a.u.)^3
     number of atoms/cell      =            8
     number of atomic types    =            2
     number of electrons       =        64.00
     number of Kohn-Sham states=           32
     kinetic-energy cutoff     =     110.0000  Ry
     charge density cutoff     =     440.0000  Ry
     convergence threshold     =      1.0E-08
     mixing beta               =       0.7000
     number of iterations used =            8  plain     mixing
     Exchange-correlation      = PBE ( 1  4  3  4 0 0)

     celldm(1)=   7.955747  celldm(2)=   0.000000  celldm(3)=   0.000000
     celldm(4)=   0.000000  celldm(5)=   0.000000  celldm(6)=   0.000000

     crystal axes: (cart. coord. in units of alat)
               a(1) = (   1.000000   0.000000   0.000000 )  
               a(2) = (   0.000000   1.000000   0.000000 )  
               a(3) = (   0.000000   0.000000   1.000000 )  

     reciprocal axes: (cart. coord. in units 2 pi/alat)
               b(1) = (  1.000000  0.000000  0.000000 )  
               b(2) = (  0.000000  1.000000  0.000000 )  
               b(3) = (  0.000000  0.000000  1.000000 )  


     PseudoPot. # 1 for Mg read from file:
     ./Mg.nc.UPF
     MD5 check sum: 4c04d8c6e0476e83eaecaf72fa8acc4d
     Pseudo is Norm-conserving, Zval = 10.0
     Generated using ONCVPSP code by D. R. Hamann
     Using radial grid of 1510 points,  4 beta functions with: 
                l(1) =   0
                l(2) =   0
                l(3) =   1
                l(4) =   1

     PseudoPot. # 2 for O  read from file:
     ./O.nc.UPF
     MD5 check sum: 3e3f909f7470e8921608ab6b1f57bbae
     Pseudo is Norm-conserving + core correction, Zval =  6.0
     Generated using ONCVPSP code by D. R. Hamann
     Using radial grid of  936 points,  5 beta functions with: 
                l(1) =   0
                l(2) =   0
                l(3) =   1
                l(4) =   1
                l(5) =   2

     atomic species   valence    mass     pseudopotential
        Mg            10.00    24.30500     Mg( 1.00)
        O              6.00    15.99900     O ( 1.00)

     48 Sym. Ops., with inversion, found



   Cartesian axes

     site n.     atom                  positions (alat units)
         1           Mg  tau(   1) = (   0.0000000   0.0000000   0.0000000  )
         2           Mg  tau(   2) = (   0.5000000   0.5000000   0.0000000  )
         3           Mg  tau(   3) = (   0.5000000   0.0000000   0.5000000  )
         4           Mg  tau(   4) = (   0.0000000   0.5000000   0.5000000  )
         5           O   tau(   5) = (   0.5000000   0.0000000   0.0000000  )
         6           O   tau(   6) = (   0.0000000   0.5000000   0.0000000  )
         7           O   tau(   7) = (   0.0000000   0.0000000   0.5000000  )
         8           O   tau(   8) = (   0.5000000   0.5000000   0.5000000  )

     number of k points=     4
                       cart. coord. in units 2pi/alat
        k(    1) = (   0.0000000   0.0000000   0.0000000), wk =   0.0740741
        k(    2) = (   0.0000000   0.0000000   0.3333333), wk =   0.4444444
        k(    3) = (   0.0000000   0.3333333   0.3333333), wk =   0.8888889
        k(    4) = (   0.3333333   0.3333333   0.3333333), wk =   0.5925926

     Dense  grid:    78517 G-vectors     FFT dimensions: (  54,  54,  54)

     Estimated max dynamical RAM per process >       9.93 MB

     Estimated total dynamical RAM >     198.52 MB

     Initial potential from superposition of free atoms

     starting charge   63.99678, renormalised to   64.00000
     Starting wfcs are   36 randomized atomic wfcs

     total cpu time spent up to now is        0.4 secs

     Self-consistent Calculation

     iteration #  1     ecut=   110.00 Ry     beta= 0.70
     Davidson diagonalization with overlap
     ethr =  1.00E-02,  avg # of iterations =  2.0

     total cpu time spent up to now is        0.7 secs

     total energy              =    -607.74101107 Ry
     Harris-Foulkes estimate   =    -608.86031602 Ry
     estimated scf accuracy    <       1.55541562 Ry

     iteration #  2     ecut=   110.00 Ry     beta= 0.70
     Davidson diagonalization with overlap
     ethr =  2.43E-03,  avg # of iterations =  2.8

     total cpu time spent up to now is        1.0 secs

     total energy              =    -608.13768262 Ry
     Harris-Foulkes estimate   =    -608.80007872 Ry
     estimated scf accuracy    <       1.36225555 Ry

     iteration #  3     ecut=   110.00 Ry     beta= 0.70
     Davidson diagonalization with overlap
     ethr =  2.13E-03,  avg # of iterations =  2.0

     total cpu time spent up to now is        1.2 secs

     total energy              =    -608.40659957 Ry
     Harris-Foulkes estimate   =    -608.40713143 Ry
     estimated scf accuracy    <       0.00628661 Ry

     iteration #  4     ecut=   110.00 Ry     beta= 0.70
     Davidson diagonalization with overlap
     ethr =  9.82E-06,  avg # of iterations =  2.0

     total cpu time spent up to now is        1.5 secs

     total energy              =    -608.40796414 Ry
     Harris-Foulkes estimate   =    -608.40801210 Ry
     estimated scf accuracy    <       0.00011433 Ry

     iteration #  5     ecut=   110.00 Ry     beta= 0.70
     Davidson diagonalization with overlap
     ethr =  1.79E-07,  avg # of iterations =  1.2

     total cpu time spent up to now is        1.7 secs

     total energy              =    -608.40796883 Ry
     Harris-Foulkes estimate   =    -608.40796964 Ry
     estimated scf accuracy    <       0.00001311 Ry

     iteration #  6     ecut=   110.00 Ry     beta= 0.70
     Davidson diagonalization with overlap
     ethr =  2.05E-08,  avg # of iterations =  2.0

     total cpu time spent up to now is        1.9 secs

     total energy              =    -608.40797111 Ry
     Harris-Foulkes estimate   =    -608.40797185 Ry
     estimated scf accuracy    <       0.00000202 Ry

     iteration #  7     ecut=   110.00 Ry     beta= 0.70
     Davidson diagonalization with overlap
     ethr =  3.15E-09,  avg # of iterations =  2.0

     total cpu time spent up to now is        2.2 secs

     total energy              =    -608.40797109 Ry
     Harris-Foulkes estimate   =    -608.40797135 Ry
     estimated scf accuracy    <       0.00000058 Ry

     iteration #  8     ecut=   110.00 Ry     beta= 0.70
     Davidson diagonalization with overlap
     ethr =  9.05E-10,  avg # of iterations =  2.0

     total cpu time spent up to now is        2.4 secs

     total energy              =    -608.40797113 Ry
     Harris-Foulkes estimate   =    -608.40797116 Ry
     estimated scf accuracy    <       0.00000006 Ry

     iteration #  9     ecut=   110.00 Ry     beta= 0.70
     Davidson diagonalization with overlap
     ethr =  9.52E-11,  avg # of iterations =  2.0

     total cpu time spent up to now is        2.7 secs

     End of self-consistent calculation

          k = 0.0000 0.0000 0.0000 (  9795 PWs)   bands (ev):

   -64.2786 -64.2671 -64.2671 -64.2671 -31.1041 -31.1041 -31.1041 -31.0601
   -31.0601 -31.0601 -31.0601 -31.0601 -31.0601 -31.0314 -31.0314 -31.0314
    -9.1224  -7.5771  -7.5770  -7.5770   4.0282   4.0282   4.0282   6.7371
     6.7371   6.7371   6.7371   6.7371   6.7371   8.0729   8.0729   8.0729

          k = 0.0000 0.0000 0.3333 (  9826 PWs)   bands (ev):

   -64.2757 -64.2700 -64.2671 -64.2671 -31.0931 -31.0931 -31.0877 -31.0710
   -31.0710 -31.0616 -31.0616 -31.0529 -31.0529 -31.0514 -31.0385 -31.0385
    -8.7430  -7.9686  -7.5295  -7.5295   4.5493   4.5493   4.6649   5.8547
     5.8547   6.4180   6.4180   6.5017   7.0281   7.0281   7.6900   7.6900

          k = 0.0000 0.3333 0.3333 (  9795 PWs)   bands (ev):

   -64.2736 -64.2692 -64.2692 -64.2678 -31.0923 -31.0923 -31.0873 -31.0830
   -31.0732 -31.0629 -31.0629 -31.0488 -31.0478 -31.0478 -31.0466 -31.0345
    -8.4237  -7.8118  -7.8117  -7.5889   4.5601   4.5601   4.8727   5.0390
     5.4660   6.2425   6.2426   7.0697   7.0697   7.0876   7.1471   7.7646

          k = 0.3333 0.3333 0.3333 (  9823 PWs)   bands (ev):

   -64.2721 -64.2692 -64.2692 -64.2692 -31.1071 -31.1071 -31.1071 -31.0959
   -31.0520 -31.0520 -31.0520 -31.0452 -31.0452 -31.0452 -31.0380 -31.0380
    -8.1762  -7.7526  -7.7525  -7.7525   3.9292   3.9292   3.9292   4.4240
     6.6525   6.6525   6.6525   7.2455   7.2455   7.2455   7.5835   7.5835

     highest occupied level (ev):     8.0729

!    total energy              =    -608.40797114 Ry
     Harris-Foulkes estimate   =    -608.40797114 Ry
     estimated scf accuracy    <          2.9E-09 Ry

     The total energy is the sum of the following terms:

     one-electron contribution =    -297.14612491 Ry
     hartree contribution      =     165.98193691 Ry
     xc contribution           =     -97.99130745 Ry
     ewald contribution        =    -379.25247568 Ry

     convergence has been achieved in   9 iterations

     Forces acting on atoms (cartesian axes, Ry/au):

     atom    1 type  1   force =     0.00000000    0.00000000    0.00000000
     atom    2 type  1   force =     0.00000000    0.00000000    0.00000000
     atom    3 type  1   force =     0.00000000    0.00000000    0.00000000
     atom    4 type  1   force =     0.00000000    0.00000000    0.00000000
     atom    5 type  2   force =     0.00000000    0.00000000    0.00000000
     atom    6 type  2   force =     0.00000000    0.00000000    0.00000000
     atom    7 type  2   force =     0.00000000    0.00000000   -0.00000000
     atom    8 type  2   force =     0.00000000    0.00000000    0.00000000

     Total force =     0.000000     Total SCF correction =     0.000000

     Writing output data file MgO_110.save/
 
     init_run     :      0.19s CPU      0.24s WALL (       1 calls)
     electrons    :      2.21s CPU      2.34s WALL (       1 calls)
     forces       :      0.05s CPU      0.05s WALL (       1 calls)

     Called by init_run:
     wfcinit      :      0.09s CPU      0.10s WALL (       1 calls)
     potinit      :      0.02s CPU      0.05s WALL (       1 calls)
     hinit0       :      0.03s CPU      0.04s WALL (       1 calls)

     Called by electrons:
     c_bands      :      1.86s CPU      1.91s WALL (       9 calls)
     sum_band     :      0.26s CPU      0.27s WALL (       9 calls)
     v_of_rho     :      0.07s CPU      0.07s WALL (      10 calls)
     mix_rho      :      0.01s CPU      0.02s WALL (       9 calls)

     Called by c_bands:
     init_us_2    :      0.03s CPU      0.03s WALL (      80 calls)
     cegterg      :      1.75s CPU      1.79s WALL (      36 calls)

     Called by sum_band:

     Called by *egterg:
     h_psi        :      1.36s CPU      1.40s WALL (     112 calls)
     g_psi        :      0.01s CPU      0.01s WALL (      72 calls)
     cdiaghg      :      0.22s CPU      0.22s WALL (     108 calls)

     Called by h_psi:
     h_psi:pot    :      1.35s CPU      1.39s WALL (     112 calls)
     h_psi:calbec :      0.10s CPU      0.11s WALL (     112 calls)
     vloc_psi     :      1.16s CPU      1.19s WALL (     112 calls)
     add_vuspsi   :      0.09s CPU      0.09s WALL (     112 calls)

     General routines
     calbec       :      0.12s CPU      0.12s WALL (     128 calls)
     fft          :      0.04s CPU      0.05s WALL (     110 calls)
     ffts         :      0.00s CPU      0.00s WALL (       9 calls)
     fftw         :      1.28s CPU      1.32s WALL (    7298 calls)
 
     Parallel routines
     fft_scatt_xy :      0.14s CPU      0.14s WALL (    7417 calls)
     fft_scatt_yz :      0.56s CPU      0.58s WALL (    7417 calls)
 
     PWSCF        :      2.71s CPU      3.52s WALL

 
   This run was terminated on:  18: 0:51   9Sep2020            

=------------------------------------------------------------------------------=
   JOB DONE.
=------------------------------------------------------------------------------=
Starting epilogue... Wed Sep  9 18:00:52 CEST 2020
=== JOB_STATISTICS ===
=== current date     : Wed Sep  9 18:00:52 CEST 2020
= Job-ID             : 1346733.eadm
= Job-Name           : MoS2.phon
= Queue              : devel
= PBS_O_WORKDIR      : /home/hpc/rzku/phyv025h/Exercise_sheet_1/Exercise_1
= Requested resources: ncpus=1,neednodes=2:ppn=40,nodes=2:ppn=40,walltime=01:00:00
= Used resources     : cput=00:12:21,mem=1157752kb,vmem=10988692kb,walltime=00:00:52
= Node list          : e0108,e0107
= AccessKey          : 8392bc49
======================
Power management available, setting all CPUs to ondemand govenor
End of epilogue: Wed Sep  9 18:00:52 CEST 2020
