Starting prologue... Wed Sep 9 17:59:49 CEST 2020
Master node: e0106
Kill all process from other users
Adjust oom killer config
Clearing buffers and caches on the nodes.
Power management available, enabling ondemand governor
End of prologue: Wed Sep  9 17:59:56 CEST 2020
/home/hpc/rzku/phyv025h/Exercise_sheet_1/Exercise_1

     Program PWSCF v.6.4.1 starts on  9Sep2020 at 18: 0: 7 

     This program is part of the open-source Quantum ESPRESSO suite
     for quantum simulation of materials; please cite
         "P. Giannozzi et al., J. Phys.:Condens. Matter 21 395502 (2009);
         "P. Giannozzi et al., J. Phys.:Condens. Matter 29 465901 (2017);
          URL http://www.quantum-espresso.org", 
     in publications or presentations arising from this work. More details at
     http://www.quantum-espresso.org/quote

     Parallel version (MPI & OpenMP), running on      20 processor cores
     Number of MPI processes:                20
     Threads/MPI process:                     1

     MPI processes distributed on     1 nodes
     R & G space division:  proc/nbgrp/npool/nimage =      20
     Reading input from /home/hpc/rzku/phyv025h/Exercise_sheet_1/Exercise_1/1_b/MgO_222.in

     Current dimensions of program PWSCF are:
     Max number of different atomic species (ntypx) = 10
     Max number of k-points (npk) =  40000
     Max angular momentum in pseudopotentials (lmaxx) =  3

     IMPORTANT: XC functional enforced from input :
     Exchange-correlation      = PBE ( 1  4  3  4 0 0)
     Any further DFT definition will be discarded
     Please, verify this is what you really want


     Subspace diagonalization in iterative solution of the eigenvalue problem:
     a serial algorithm will be used

     Found symmetry operation: I + ( -0.5000 -0.5000  0.0000)
     This is a supercell, fractional translations are disabled
     Message from routine setup:
     DEPRECATED: symmetry with ibrav=0, use correct ibrav instead
 
     Parallelization info
     --------------------
     sticks:   dense  smooth     PW     G-vecs:    dense   smooth      PW
     Min          74      74     21                 2192     2192     345
     Max          75      75     22                 2197     2197     350
     Sum        1489    1489    437                43867    43867    6931
 


     bravais-lattice index     =            0
     lattice parameter (alat)  =       7.9557  a.u.
     unit-cell volume          =     503.5503 (a.u.)^3
     number of atoms/cell      =            8
     number of atomic types    =            2
     number of electrons       =        64.00
     number of Kohn-Sham states=           32
     kinetic-energy cutoff     =      75.0000  Ry
     charge density cutoff     =     300.0000  Ry
     convergence threshold     =      1.0E-08
     mixing beta               =       0.7000
     number of iterations used =            8  plain     mixing
     Exchange-correlation      = PBE ( 1  4  3  4 0 0)

     celldm(1)=   7.955747  celldm(2)=   0.000000  celldm(3)=   0.000000
     celldm(4)=   0.000000  celldm(5)=   0.000000  celldm(6)=   0.000000

     crystal axes: (cart. coord. in units of alat)
               a(1) = (   1.000000   0.000000   0.000000 )  
               a(2) = (   0.000000   1.000000   0.000000 )  
               a(3) = (   0.000000   0.000000   1.000000 )  

     reciprocal axes: (cart. coord. in units 2 pi/alat)
               b(1) = (  1.000000  0.000000  0.000000 )  
               b(2) = (  0.000000  1.000000  0.000000 )  
               b(3) = (  0.000000  0.000000  1.000000 )  


     PseudoPot. # 1 for Mg read from file:
     ./Mg.nc.UPF
     MD5 check sum: 4c04d8c6e0476e83eaecaf72fa8acc4d
     Pseudo is Norm-conserving, Zval = 10.0
     Generated using ONCVPSP code by D. R. Hamann
     Using radial grid of 1510 points,  4 beta functions with: 
                l(1) =   0
                l(2) =   0
                l(3) =   1
                l(4) =   1

     PseudoPot. # 2 for O  read from file:
     ./O.nc.UPF
     MD5 check sum: 3e3f909f7470e8921608ab6b1f57bbae
     Pseudo is Norm-conserving + core correction, Zval =  6.0
     Generated using ONCVPSP code by D. R. Hamann
     Using radial grid of  936 points,  5 beta functions with: 
                l(1) =   0
                l(2) =   0
                l(3) =   1
                l(4) =   1
                l(5) =   2

     atomic species   valence    mass     pseudopotential
        Mg            10.00    24.30500     Mg( 1.00)
        O              6.00    15.99900     O ( 1.00)

     48 Sym. Ops., with inversion, found



   Cartesian axes

     site n.     atom                  positions (alat units)
         1           Mg  tau(   1) = (   0.0000000   0.0000000   0.0000000  )
         2           Mg  tau(   2) = (   0.5000000   0.5000000   0.0000000  )
         3           Mg  tau(   3) = (   0.5000000   0.0000000   0.5000000  )
         4           Mg  tau(   4) = (   0.0000000   0.5000000   0.5000000  )
         5           O   tau(   5) = (   0.5000000   0.0000000   0.0000000  )
         6           O   tau(   6) = (   0.0000000   0.5000000   0.0000000  )
         7           O   tau(   7) = (   0.0000000   0.0000000   0.5000000  )
         8           O   tau(   8) = (   0.5000000   0.5000000   0.5000000  )

     number of k points=     4
                       cart. coord. in units 2pi/alat
        k(    1) = (   0.0000000   0.0000000   0.0000000), wk =   0.2500000
        k(    2) = (   0.0000000   0.0000000  -0.5000000), wk =   0.7500000
        k(    3) = (   0.0000000  -0.5000000  -0.5000000), wk =   0.7500000
        k(    4) = (  -0.5000000  -0.5000000  -0.5000000), wk =   0.2500000

     Dense  grid:    43867 G-vectors     FFT dimensions: (  45,  45,  45)

     Estimated max dynamical RAM per process >       6.81 MB

     Estimated total dynamical RAM >     136.16 MB

     Check: negative core charge=   -0.000003

     Initial potential from superposition of free atoms

     starting charge   63.99678, renormalised to   64.00000
     Starting wfcs are   36 randomized atomic wfcs

     total cpu time spent up to now is        0.8 secs

     Self-consistent Calculation

     iteration #  1     ecut=    75.00 Ry     beta= 0.70
     Davidson diagonalization with overlap
     ethr =  1.00E-02,  avg # of iterations =  2.0

     total cpu time spent up to now is        1.0 secs

     total energy              =    -607.73375946 Ry
     Harris-Foulkes estimate   =    -608.85385741 Ry
     estimated scf accuracy    <       1.55680823 Ry

     iteration #  2     ecut=    75.00 Ry     beta= 0.70
     Davidson diagonalization with overlap
     ethr =  2.43E-03,  avg # of iterations =  2.5

     total cpu time spent up to now is        1.2 secs

     total energy              =    -608.13548504 Ry
     Harris-Foulkes estimate   =    -608.78407561 Ry
     estimated scf accuracy    <       1.32766796 Ry

     iteration #  3     ecut=    75.00 Ry     beta= 0.70
     Davidson diagonalization with overlap
     ethr =  2.07E-03,  avg # of iterations =  2.0

     total cpu time spent up to now is        1.3 secs

     total energy              =    -608.39723405 Ry
     Harris-Foulkes estimate   =    -608.39771827 Ry
     estimated scf accuracy    <       0.00622611 Ry

     iteration #  4     ecut=    75.00 Ry     beta= 0.70
     Davidson diagonalization with overlap
     ethr =  9.73E-06,  avg # of iterations =  2.0

     total cpu time spent up to now is        1.5 secs

     total energy              =    -608.39848517 Ry
     Harris-Foulkes estimate   =    -608.39853085 Ry
     estimated scf accuracy    <       0.00011253 Ry

     iteration #  5     ecut=    75.00 Ry     beta= 0.70
     Davidson diagonalization with overlap
     ethr =  1.76E-07,  avg # of iterations =  1.2

     total cpu time spent up to now is        1.6 secs

     total energy              =    -608.39849018 Ry
     Harris-Foulkes estimate   =    -608.39849024 Ry
     estimated scf accuracy    <       0.00001251 Ry

     iteration #  6     ecut=    75.00 Ry     beta= 0.70
     Davidson diagonalization with overlap
     ethr =  1.96E-08,  avg # of iterations =  2.0

     total cpu time spent up to now is        1.8 secs

     total energy              =    -608.39849237 Ry
     Harris-Foulkes estimate   =    -608.39849289 Ry
     estimated scf accuracy    <       0.00000145 Ry

     iteration #  7     ecut=    75.00 Ry     beta= 0.70
     Davidson diagonalization with overlap
     ethr =  2.26E-09,  avg # of iterations =  2.0

     total cpu time spent up to now is        2.0 secs

     total energy              =    -608.39849234 Ry
     Harris-Foulkes estimate   =    -608.39849249 Ry
     estimated scf accuracy    <       0.00000043 Ry

     iteration #  8     ecut=    75.00 Ry     beta= 0.70
     Davidson diagonalization with overlap
     ethr =  6.65E-10,  avg # of iterations =  2.0

     total cpu time spent up to now is        2.1 secs

     total energy              =    -608.39849233 Ry
     Harris-Foulkes estimate   =    -608.39849237 Ry
     estimated scf accuracy    <       0.00000008 Ry

     iteration #  9     ecut=    75.00 Ry     beta= 0.70
     Davidson diagonalization with overlap
     ethr =  1.27E-10,  avg # of iterations =  2.0

     total cpu time spent up to now is        2.3 secs

     End of self-consistent calculation

          k = 0.0000 0.0000 0.0000 (  5497 PWs)   bands (ev):

   -64.2937 -64.2825 -64.2825 -64.2816 -31.1138 -31.1138 -31.1138 -31.0701
   -31.0701 -31.0701 -31.0700 -31.0700 -31.0700 -31.0422 -31.0422 -31.0422
    -9.1075  -7.5600  -7.5598  -7.5598   4.0404   4.0404   4.0404   6.7526
     6.7526   6.7526   6.7529   6.7529   6.7529   8.0898   8.0898   8.0898

          k = 0.0000 0.0000-0.5000 (  5478 PWs)   bands (ev):

   -64.2882 -64.2877 -64.2825 -64.2819 -31.0922 -31.0922 -31.0920 -31.0920
   -31.0798 -31.0798 -31.0724 -31.0723 -31.0557 -31.0557 -31.0555 -31.0555
    -8.3421  -8.3420  -7.4962  -7.4961   5.1604   5.1604   5.1604   5.1604
     5.4765   5.4768   6.3310   6.3313   7.3607   7.3607   7.3607   7.3607

          k = 0.0000-0.5000-0.5000 (  5472 PWs)   bands (ev):

   -64.2853 -64.2853 -64.2853 -64.2842 -31.1018 -31.1016 -31.1014 -31.1014
   -31.0738 -31.0736 -31.0736 -31.0733 -31.0507 -31.0505 -31.0503 -31.0503
    -7.8687  -7.8686  -7.8686  -7.8686   4.6093   4.6094   4.6094   4.6096
     6.1110   6.1111   6.1114   6.1114   7.4493   7.4494   7.4494   7.4496

          k =-0.5000-0.5000-0.5000 (  5520 PWs)   bands (ev):

   -64.2853 -64.2853 -64.2853 -64.2842 -31.1270 -31.1267 -31.1267 -31.1267
   -31.0508 -31.0508 -31.0506 -31.0506 -31.0506 -31.0504 -31.0504 -31.0504
    -7.7844  -7.7842  -7.7842  -7.7842   3.4889   3.4890   3.4890   3.4890
     7.4496   7.4496   7.4497   7.4497   7.4497   7.4499   7.4499   7.4499

     highest occupied level (ev):     8.0898

!    total energy              =    -608.39849235 Ry
     Harris-Foulkes estimate   =    -608.39849235 Ry
     estimated scf accuracy    <          4.3E-09 Ry

     The total energy is the sum of the following terms:

     one-electron contribution =    -297.13685273 Ry
     hartree contribution      =     165.98960238 Ry
     xc contribution           =     -97.99876631 Ry
     ewald contribution        =    -379.25247568 Ry

     convergence has been achieved in   9 iterations

     Forces acting on atoms (cartesian axes, Ry/au):

     atom    1 type  1   force =     0.00000000    0.00000000    0.00000000
     atom    2 type  1   force =     0.00000000    0.00000000   -0.00000000
     atom    3 type  1   force =     0.00000000    0.00000000    0.00000000
     atom    4 type  1   force =     0.00000000    0.00000000    0.00000000
     atom    5 type  2   force =     0.00000000    0.00000000    0.00000000
     atom    6 type  2   force =     0.00000000    0.00000000    0.00000000
     atom    7 type  2   force =     0.00000000    0.00000000    0.00000000
     atom    8 type  2   force =     0.00000000    0.00000000    0.00000000

     Total force =     0.000000     Total SCF correction =     0.000000

     Writing output data file MgO_222.save/
 
     init_run     :      0.11s CPU      0.22s WALL (       1 calls)
     electrons    :      1.45s CPU      1.66s WALL (       1 calls)
     forces       :      0.03s CPU      0.03s WALL (       1 calls)

     Called by init_run:
     wfcinit      :      0.06s CPU      0.07s WALL (       1 calls)
     potinit      :      0.01s CPU      0.04s WALL (       1 calls)
     hinit0       :      0.02s CPU      0.07s WALL (       1 calls)

     Called by electrons:
     c_bands      :      1.22s CPU      1.29s WALL (       9 calls)
     sum_band     :      0.17s CPU      0.18s WALL (       9 calls)
     v_of_rho     :      0.04s CPU      0.05s WALL (      10 calls)
     mix_rho      :      0.01s CPU      0.01s WALL (       9 calls)

     Called by c_bands:
     init_us_2    :      0.02s CPU      0.02s WALL (      80 calls)
     cegterg      :      1.15s CPU      1.22s WALL (      36 calls)

     Called by sum_band:

     Called by *egterg:
     h_psi        :      0.87s CPU      0.92s WALL (     111 calls)
     g_psi        :      0.00s CPU      0.01s WALL (      71 calls)
     cdiaghg      :      0.20s CPU      0.21s WALL (     107 calls)

     Called by h_psi:
     h_psi:pot    :      0.86s CPU      0.92s WALL (     111 calls)
     h_psi:calbec :      0.06s CPU      0.06s WALL (     111 calls)
     vloc_psi     :      0.76s CPU      0.81s WALL (     111 calls)
     add_vuspsi   :      0.05s CPU      0.05s WALL (     111 calls)

     General routines
     calbec       :      0.06s CPU      0.07s WALL (     127 calls)
     fft          :      0.03s CPU      0.08s WALL (     110 calls)
     ffts         :      0.00s CPU      0.00s WALL (       9 calls)
     fftw         :      0.84s CPU      0.90s WALL (    7112 calls)
 
     Parallel routines
     fft_scatt_xy :      0.09s CPU      0.10s WALL (    7231 calls)
     fft_scatt_yz :      0.43s CPU      0.46s WALL (    7231 calls)
 
     PWSCF        :      1.77s CPU      3.39s WALL

 
   This run was terminated on:  18: 0:11   9Sep2020            

=------------------------------------------------------------------------------=
   JOB DONE.
=------------------------------------------------------------------------------=

     Program PWSCF v.6.4.1 starts on  9Sep2020 at 18: 0:12 

     This program is part of the open-source Quantum ESPRESSO suite
     for quantum simulation of materials; please cite
         "P. Giannozzi et al., J. Phys.:Condens. Matter 21 395502 (2009);
         "P. Giannozzi et al., J. Phys.:Condens. Matter 29 465901 (2017);
          URL http://www.quantum-espresso.org", 
     in publications or presentations arising from this work. More details at
     http://www.quantum-espresso.org/quote

     Parallel version (MPI & OpenMP), running on      20 processor cores
     Number of MPI processes:                20
     Threads/MPI process:                     1

     MPI processes distributed on     1 nodes
     R & G space division:  proc/nbgrp/npool/nimage =      20
     Reading input from /home/hpc/rzku/phyv025h/Exercise_sheet_1/Exercise_1/1_b/MgO_333.in

     Current dimensions of program PWSCF are:
     Max number of different atomic species (ntypx) = 10
     Max number of k-points (npk) =  40000
     Max angular momentum in pseudopotentials (lmaxx) =  3

     IMPORTANT: XC functional enforced from input :
     Exchange-correlation      = PBE ( 1  4  3  4 0 0)
     Any further DFT definition will be discarded
     Please, verify this is what you really want


     Subspace diagonalization in iterative solution of the eigenvalue problem:
     a serial algorithm will be used

     Found symmetry operation: I + ( -0.5000 -0.5000  0.0000)
     This is a supercell, fractional translations are disabled
     Message from routine setup:
     DEPRECATED: symmetry with ibrav=0, use correct ibrav instead
 
     Parallelization info
     --------------------
     sticks:   dense  smooth     PW     G-vecs:    dense   smooth      PW
     Min          74      74     21                 2192     2192     321
     Max          75      75     22                 2197     2197     324
     Sum        1489    1489    421                43867    43867    6451
 


     bravais-lattice index     =            0
     lattice parameter (alat)  =       7.9557  a.u.
     unit-cell volume          =     503.5503 (a.u.)^3
     number of atoms/cell      =            8
     number of atomic types    =            2
     number of electrons       =        64.00
     number of Kohn-Sham states=           32
     kinetic-energy cutoff     =      75.0000  Ry
     charge density cutoff     =     300.0000  Ry
     convergence threshold     =      1.0E-08
     mixing beta               =       0.7000
     number of iterations used =            8  plain     mixing
     Exchange-correlation      = PBE ( 1  4  3  4 0 0)

     celldm(1)=   7.955747  celldm(2)=   0.000000  celldm(3)=   0.000000
     celldm(4)=   0.000000  celldm(5)=   0.000000  celldm(6)=   0.000000

     crystal axes: (cart. coord. in units of alat)
               a(1) = (   1.000000   0.000000   0.000000 )  
               a(2) = (   0.000000   1.000000   0.000000 )  
               a(3) = (   0.000000   0.000000   1.000000 )  

     reciprocal axes: (cart. coord. in units 2 pi/alat)
               b(1) = (  1.000000  0.000000  0.000000 )  
               b(2) = (  0.000000  1.000000  0.000000 )  
               b(3) = (  0.000000  0.000000  1.000000 )  


     PseudoPot. # 1 for Mg read from file:
     ./Mg.nc.UPF
     MD5 check sum: 4c04d8c6e0476e83eaecaf72fa8acc4d
     Pseudo is Norm-conserving, Zval = 10.0
     Generated using ONCVPSP code by D. R. Hamann
     Using radial grid of 1510 points,  4 beta functions with: 
                l(1) =   0
                l(2) =   0
                l(3) =   1
                l(4) =   1

     PseudoPot. # 2 for O  read from file:
     ./O.nc.UPF
     MD5 check sum: 3e3f909f7470e8921608ab6b1f57bbae
     Pseudo is Norm-conserving + core correction, Zval =  6.0
     Generated using ONCVPSP code by D. R. Hamann
     Using radial grid of  936 points,  5 beta functions with: 
                l(1) =   0
                l(2) =   0
                l(3) =   1
                l(4) =   1
                l(5) =   2

     atomic species   valence    mass     pseudopotential
        Mg            10.00    24.30500     Mg( 1.00)
        O              6.00    15.99900     O ( 1.00)

     48 Sym. Ops., with inversion, found



   Cartesian axes

     site n.     atom                  positions (alat units)
         1           Mg  tau(   1) = (   0.0000000   0.0000000   0.0000000  )
         2           Mg  tau(   2) = (   0.5000000   0.5000000   0.0000000  )
         3           Mg  tau(   3) = (   0.5000000   0.0000000   0.5000000  )
         4           Mg  tau(   4) = (   0.0000000   0.5000000   0.5000000  )
         5           O   tau(   5) = (   0.5000000   0.0000000   0.0000000  )
         6           O   tau(   6) = (   0.0000000   0.5000000   0.0000000  )
         7           O   tau(   7) = (   0.0000000   0.0000000   0.5000000  )
         8           O   tau(   8) = (   0.5000000   0.5000000   0.5000000  )

     number of k points=     4
                       cart. coord. in units 2pi/alat
        k(    1) = (   0.0000000   0.0000000   0.0000000), wk =   0.0740741
        k(    2) = (   0.0000000   0.0000000   0.3333333), wk =   0.4444444
        k(    3) = (   0.0000000   0.3333333   0.3333333), wk =   0.8888889
        k(    4) = (   0.3333333   0.3333333   0.3333333), wk =   0.5925926

     Dense  grid:    43867 G-vectors     FFT dimensions: (  45,  45,  45)

     Estimated max dynamical RAM per process >       6.81 MB

     Estimated total dynamical RAM >     136.16 MB

     Check: negative core charge=   -0.000003

     Initial potential from superposition of free atoms

     starting charge   63.99678, renormalised to   64.00000
     Starting wfcs are   36 randomized atomic wfcs

     total cpu time spent up to now is        0.4 secs

     Self-consistent Calculation

     iteration #  1     ecut=    75.00 Ry     beta= 0.70
     Davidson diagonalization with overlap
     ethr =  1.00E-02,  avg # of iterations =  2.0

     total cpu time spent up to now is        0.5 secs

     total energy              =    -607.73655857 Ry
     Harris-Foulkes estimate   =    -608.85597583 Ry
     estimated scf accuracy    <       1.55607409 Ry

     iteration #  2     ecut=    75.00 Ry     beta= 0.70
     Davidson diagonalization with overlap
     ethr =  2.43E-03,  avg # of iterations =  2.8

     total cpu time spent up to now is        0.7 secs

     total energy              =    -608.13403028 Ry
     Harris-Foulkes estimate   =    -608.79649042 Ry
     estimated scf accuracy    <       1.36239361 Ry

     iteration #  3     ecut=    75.00 Ry     beta= 0.70
     Davidson diagonalization with overlap
     ethr =  2.13E-03,  avg # of iterations =  2.0

     total cpu time spent up to now is        0.9 secs

     total energy              =    -608.40277900 Ry
     Harris-Foulkes estimate   =    -608.40329097 Ry
     estimated scf accuracy    <       0.00628617 Ry

     iteration #  4     ecut=    75.00 Ry     beta= 0.70
     Davidson diagonalization with overlap
     ethr =  9.82E-06,  avg # of iterations =  2.0

     total cpu time spent up to now is        1.1 secs

     total energy              =    -608.40410846 Ry
     Harris-Foulkes estimate   =    -608.40415487 Ry
     estimated scf accuracy    <       0.00011290 Ry

     iteration #  5     ecut=    75.00 Ry     beta= 0.70
     Davidson diagonalization with overlap
     ethr =  1.76E-07,  avg # of iterations =  1.2

     total cpu time spent up to now is        1.2 secs

     total energy              =    -608.40411341 Ry
     Harris-Foulkes estimate   =    -608.40411382 Ry
     estimated scf accuracy    <       0.00001227 Ry

     iteration #  6     ecut=    75.00 Ry     beta= 0.70
     Davidson diagonalization with overlap
     ethr =  1.92E-08,  avg # of iterations =  2.0

     total cpu time spent up to now is        1.4 secs

     total energy              =    -608.40411573 Ry
     Harris-Foulkes estimate   =    -608.40411628 Ry
     estimated scf accuracy    <       0.00000155 Ry

     iteration #  7     ecut=    75.00 Ry     beta= 0.70
     Davidson diagonalization with overlap
     ethr =  2.42E-09,  avg # of iterations =  2.0

     total cpu time spent up to now is        1.6 secs

     total energy              =    -608.40411563 Ry
     Harris-Foulkes estimate   =    -608.40411582 Ry
     estimated scf accuracy    <       0.00000043 Ry

     iteration #  8     ecut=    75.00 Ry     beta= 0.70
     Davidson diagonalization with overlap
     ethr =  6.73E-10,  avg # of iterations =  2.0

     total cpu time spent up to now is        1.7 secs

     total energy              =    -608.40411568 Ry
     Harris-Foulkes estimate   =    -608.40411569 Ry
     estimated scf accuracy    <       0.00000004 Ry

     iteration #  9     ecut=    75.00 Ry     beta= 0.70
     Davidson diagonalization with overlap
     ethr =  6.33E-11,  avg # of iterations =  2.0

     total cpu time spent up to now is        1.9 secs

     End of self-consistent calculation

          k = 0.0000 0.0000 0.0000 (  5497 PWs)   bands (ev):

   -64.2877 -64.2765 -64.2765 -64.2756 -31.1083 -31.1083 -31.1083 -31.0646
   -31.0646 -31.0646 -31.0645 -31.0645 -31.0645 -31.0366 -31.0366 -31.0366
    -9.1225  -7.5773  -7.5772  -7.5772   4.0293   4.0293   4.0293   6.7379
     6.7379   6.7379   6.7382   6.7382   6.7382   8.0729   8.0729   8.0729

          k = 0.0000 0.0000 0.3333 (  5554 PWs)   bands (ev):

   -64.2849 -64.2791 -64.2765 -64.2759 -31.0978 -31.0978 -31.0925 -31.0758
   -31.0758 -31.0666 -31.0665 -31.0575 -31.0575 -31.0560 -31.0434 -31.0434
    -8.7431  -7.9687  -7.5297  -7.5296   4.5500   4.5500   4.6654   5.8556
     5.8556   6.4183   6.4186   6.5021   7.0290   7.0290   7.6906   7.6906

          k = 0.0000 0.3333 0.3333 (  5514 PWs)   bands (ev):

   -64.2827 -64.2786 -64.2782 -64.2768 -31.0970 -31.0967 -31.0919 -31.0874
   -31.0776 -31.0673 -31.0673 -31.0534 -31.0527 -31.0525 -31.0512 -31.0394
    -8.4237  -7.8119  -7.8118  -7.5890   4.5606   4.5606   4.8732   5.0399
     5.4664   6.2435   6.2438   7.0702   7.0703   7.0885   7.1478   7.7649

          k = 0.3333 0.3333 0.3333 (  5532 PWs)   bands (ev):

   -64.2813 -64.2786 -64.2786 -64.2777 -31.1118 -31.1115 -31.1115 -31.1003
   -31.0568 -31.0568 -31.0565 -31.0499 -31.0498 -31.0498 -31.0428 -31.0428
    -8.1762  -7.7527  -7.7525  -7.7525   3.9296   3.9297   3.9297   4.4244
     6.6530   6.6532   6.6532   7.2461   7.2461   7.2464   7.5840   7.5840

     highest occupied level (ev):     8.0729

!    total energy              =    -608.40411568 Ry
     Harris-Foulkes estimate   =    -608.40411568 Ry
     estimated scf accuracy    <          3.0E-09 Ry

     The total energy is the sum of the following terms:

     one-electron contribution =    -297.12782889 Ry
     hartree contribution      =     165.96609872 Ry
     xc contribution           =     -97.98990982 Ry
     ewald contribution        =    -379.25247568 Ry

     convergence has been achieved in   9 iterations

     Forces acting on atoms (cartesian axes, Ry/au):

     atom    1 type  1   force =     0.00000000    0.00000000    0.00000000
     atom    2 type  1   force =     0.00000000    0.00000000    0.00000000
     atom    3 type  1   force =     0.00000000    0.00000000    0.00000000
     atom    4 type  1   force =     0.00000000    0.00000000    0.00000000
     atom    5 type  2   force =     0.00000000    0.00000000    0.00000000
     atom    6 type  2   force =     0.00000000    0.00000000    0.00000000
     atom    7 type  2   force =     0.00000000    0.00000000    0.00000000
     atom    8 type  2   force =     0.00000000    0.00000000    0.00000000

     Total force =     0.000000     Total SCF correction =     0.000000

     Writing output data file MgO_333.save/
 
     init_run     :      0.12s CPU      0.16s WALL (       1 calls)
     electrons    :      1.50s CPU      1.66s WALL (       1 calls)
     forces       :      0.03s CPU      0.03s WALL (       1 calls)

     Called by init_run:
     wfcinit      :      0.06s CPU      0.07s WALL (       1 calls)
     potinit      :      0.02s CPU      0.03s WALL (       1 calls)
     hinit0       :      0.02s CPU      0.03s WALL (       1 calls)

     Called by electrons:
     c_bands      :      1.26s CPU      1.31s WALL (       9 calls)
     sum_band     :      0.18s CPU      0.19s WALL (       9 calls)
     v_of_rho     :      0.05s CPU      0.05s WALL (      10 calls)
     mix_rho      :      0.01s CPU      0.01s WALL (       9 calls)

     Called by c_bands:
     init_us_2    :      0.02s CPU      0.02s WALL (      80 calls)
     cegterg      :      1.20s CPU      1.24s WALL (      36 calls)

     Called by sum_band:

     Called by *egterg:
     h_psi        :      0.89s CPU      0.94s WALL (     112 calls)
     g_psi        :      0.01s CPU      0.01s WALL (      72 calls)
     cdiaghg      :      0.22s CPU      0.22s WALL (     108 calls)

     Called by h_psi:
     h_psi:pot    :      0.88s CPU      0.93s WALL (     112 calls)
     h_psi:calbec :      0.06s CPU      0.06s WALL (     112 calls)
     vloc_psi     :      0.77s CPU      0.82s WALL (     112 calls)
     add_vuspsi   :      0.05s CPU      0.05s WALL (     112 calls)

     General routines
     calbec       :      0.06s CPU      0.07s WALL (     128 calls)
     fft          :      0.03s CPU      0.03s WALL (     110 calls)
     ffts         :      0.00s CPU      0.00s WALL (       9 calls)
     fftw         :      0.87s CPU      0.91s WALL (    7256 calls)
 
     Parallel routines
     fft_scatt_xy :      0.09s CPU      0.10s WALL (    7375 calls)
     fft_scatt_yz :      0.44s CPU      0.46s WALL (    7375 calls)
 
     PWSCF        :      1.87s CPU      2.68s WALL

 
   This run was terminated on:  18: 0:14   9Sep2020            

=------------------------------------------------------------------------------=
   JOB DONE.
=------------------------------------------------------------------------------=

     Program PWSCF v.6.4.1 starts on  9Sep2020 at 18: 0:15 

     This program is part of the open-source Quantum ESPRESSO suite
     for quantum simulation of materials; please cite
         "P. Giannozzi et al., J. Phys.:Condens. Matter 21 395502 (2009);
         "P. Giannozzi et al., J. Phys.:Condens. Matter 29 465901 (2017);
          URL http://www.quantum-espresso.org", 
     in publications or presentations arising from this work. More details at
     http://www.quantum-espresso.org/quote

     Parallel version (MPI & OpenMP), running on      20 processor cores
     Number of MPI processes:                20
     Threads/MPI process:                     1

     MPI processes distributed on     1 nodes
     R & G space division:  proc/nbgrp/npool/nimage =      20
     Reading input from /home/hpc/rzku/phyv025h/Exercise_sheet_1/Exercise_1/1_b/MgO_444.in

     Current dimensions of program PWSCF are:
     Max number of different atomic species (ntypx) = 10
     Max number of k-points (npk) =  40000
     Max angular momentum in pseudopotentials (lmaxx) =  3

     IMPORTANT: XC functional enforced from input :
     Exchange-correlation      = PBE ( 1  4  3  4 0 0)
     Any further DFT definition will be discarded
     Please, verify this is what you really want


     Subspace diagonalization in iterative solution of the eigenvalue problem:
     a serial algorithm will be used

     Found symmetry operation: I + ( -0.5000 -0.5000  0.0000)
     This is a supercell, fractional translations are disabled
     Message from routine setup:
     DEPRECATED: symmetry with ibrav=0, use correct ibrav instead
 
     Parallelization info
     --------------------
     sticks:   dense  smooth     PW     G-vecs:    dense   smooth      PW
     Min          74      74     21                 2192     2192     345
     Max          75      75     22                 2197     2197     350
     Sum        1489    1489    437                43867    43867    6931
 


     bravais-lattice index     =            0
     lattice parameter (alat)  =       7.9557  a.u.
     unit-cell volume          =     503.5503 (a.u.)^3
     number of atoms/cell      =            8
     number of atomic types    =            2
     number of electrons       =        64.00
     number of Kohn-Sham states=           32
     kinetic-energy cutoff     =      75.0000  Ry
     charge density cutoff     =     300.0000  Ry
     convergence threshold     =      1.0E-08
     mixing beta               =       0.7000
     number of iterations used =            8  plain     mixing
     Exchange-correlation      = PBE ( 1  4  3  4 0 0)

     celldm(1)=   7.955747  celldm(2)=   0.000000  celldm(3)=   0.000000
     celldm(4)=   0.000000  celldm(5)=   0.000000  celldm(6)=   0.000000

     crystal axes: (cart. coord. in units of alat)
               a(1) = (   1.000000   0.000000   0.000000 )  
               a(2) = (   0.000000   1.000000   0.000000 )  
               a(3) = (   0.000000   0.000000   1.000000 )  

     reciprocal axes: (cart. coord. in units 2 pi/alat)
               b(1) = (  1.000000  0.000000  0.000000 )  
               b(2) = (  0.000000  1.000000  0.000000 )  
               b(3) = (  0.000000  0.000000  1.000000 )  


     PseudoPot. # 1 for Mg read from file:
     ./Mg.nc.UPF
     MD5 check sum: 4c04d8c6e0476e83eaecaf72fa8acc4d
     Pseudo is Norm-conserving, Zval = 10.0
     Generated using ONCVPSP code by D. R. Hamann
     Using radial grid of 1510 points,  4 beta functions with: 
                l(1) =   0
                l(2) =   0
                l(3) =   1
                l(4) =   1

     PseudoPot. # 2 for O  read from file:
     ./O.nc.UPF
     MD5 check sum: 3e3f909f7470e8921608ab6b1f57bbae
     Pseudo is Norm-conserving + core correction, Zval =  6.0
     Generated using ONCVPSP code by D. R. Hamann
     Using radial grid of  936 points,  5 beta functions with: 
                l(1) =   0
                l(2) =   0
                l(3) =   1
                l(4) =   1
                l(5) =   2

     atomic species   valence    mass     pseudopotential
        Mg            10.00    24.30500     Mg( 1.00)
        O              6.00    15.99900     O ( 1.00)

     48 Sym. Ops., with inversion, found



   Cartesian axes

     site n.     atom                  positions (alat units)
         1           Mg  tau(   1) = (   0.0000000   0.0000000   0.0000000  )
         2           Mg  tau(   2) = (   0.5000000   0.5000000   0.0000000  )
         3           Mg  tau(   3) = (   0.5000000   0.0000000   0.5000000  )
         4           Mg  tau(   4) = (   0.0000000   0.5000000   0.5000000  )
         5           O   tau(   5) = (   0.5000000   0.0000000   0.0000000  )
         6           O   tau(   6) = (   0.0000000   0.5000000   0.0000000  )
         7           O   tau(   7) = (   0.0000000   0.0000000   0.5000000  )
         8           O   tau(   8) = (   0.5000000   0.5000000   0.5000000  )

     number of k points=    10
                       cart. coord. in units 2pi/alat
        k(    1) = (   0.0000000   0.0000000   0.0000000), wk =   0.0312500
        k(    2) = (   0.0000000   0.0000000   0.2500000), wk =   0.1875000
        k(    3) = (   0.0000000   0.0000000  -0.5000000), wk =   0.0937500
        k(    4) = (   0.0000000   0.2500000   0.2500000), wk =   0.3750000
        k(    5) = (   0.0000000   0.2500000  -0.5000000), wk =   0.3750000
        k(    6) = (   0.0000000  -0.5000000  -0.5000000), wk =   0.0937500
        k(    7) = (   0.2500000   0.2500000   0.2500000), wk =   0.2500000
        k(    8) = (   0.2500000   0.2500000  -0.5000000), wk =   0.3750000
        k(    9) = (   0.2500000  -0.5000000  -0.5000000), wk =   0.1875000
        k(   10) = (  -0.5000000  -0.5000000  -0.5000000), wk =   0.0312500

     Dense  grid:    43867 G-vectors     FFT dimensions: (  45,  45,  45)

     Estimated max dynamical RAM per process >       7.62 MB

     Estimated total dynamical RAM >     152.33 MB

     Check: negative core charge=   -0.000003

     Initial potential from superposition of free atoms

     starting charge   63.99678, renormalised to   64.00000
     Starting wfcs are   36 randomized atomic wfcs

     total cpu time spent up to now is        0.4 secs

     Self-consistent Calculation

     iteration #  1     ecut=    75.00 Ry     beta= 0.70
     Davidson diagonalization with overlap
     ethr =  1.00E-02,  avg # of iterations =  2.0

     total cpu time spent up to now is        0.9 secs

     total energy              =    -607.74449789 Ry
     Harris-Foulkes estimate   =    -608.85676882 Ry
     estimated scf accuracy    <       1.54674871 Ry

     iteration #  2     ecut=    75.00 Ry     beta= 0.70
     Davidson diagonalization with overlap
     ethr =  2.42E-03,  avg # of iterations =  2.8

     total cpu time spent up to now is        1.3 secs

     total energy              =    -608.13609827 Ry
     Harris-Foulkes estimate   =    -608.79175781 Ry
     estimated scf accuracy    <       1.34714288 Ry

     iteration #  3     ecut=    75.00 Ry     beta= 0.70
     Davidson diagonalization with overlap
     ethr =  2.10E-03,  avg # of iterations =  2.0

     total cpu time spent up to now is        1.7 secs

     total energy              =    -608.40282629 Ry
     Harris-Foulkes estimate   =    -608.40340376 Ry
     estimated scf accuracy    <       0.00637871 Ry

     iteration #  4     ecut=    75.00 Ry     beta= 0.70
     Davidson diagonalization with overlap
     ethr =  9.97E-06,  avg # of iterations =  2.0

     total cpu time spent up to now is        2.1 secs

     total energy              =    -608.40417902 Ry
     Harris-Foulkes estimate   =    -608.40422106 Ry
     estimated scf accuracy    <       0.00010441 Ry

     iteration #  5     ecut=    75.00 Ry     beta= 0.70
     Davidson diagonalization with overlap
     ethr =  1.63E-07,  avg # of iterations =  1.3

     total cpu time spent up to now is        2.5 secs

     total energy              =    -608.40418492 Ry
     Harris-Foulkes estimate   =    -608.40418432 Ry
     estimated scf accuracy    <       0.00001108 Ry

     iteration #  6     ecut=    75.00 Ry     beta= 0.70
     Davidson diagonalization with overlap
     ethr =  1.73E-08,  avg # of iterations =  2.0

     total cpu time spent up to now is        2.9 secs

     total energy              =    -608.40418669 Ry
     Harris-Foulkes estimate   =    -608.40418712 Ry
     estimated scf accuracy    <       0.00000115 Ry

     iteration #  7     ecut=    75.00 Ry     beta= 0.70
     Davidson diagonalization with overlap
     ethr =  1.80E-09,  avg # of iterations =  2.0

     total cpu time spent up to now is        3.3 secs

     total energy              =    -608.40418664 Ry
     Harris-Foulkes estimate   =    -608.40418678 Ry
     estimated scf accuracy    <       0.00000033 Ry

     iteration #  8     ecut=    75.00 Ry     beta= 0.70
     Davidson diagonalization with overlap
     ethr =  5.17E-10,  avg # of iterations =  2.0

     total cpu time spent up to now is        3.7 secs

     total energy              =    -608.40418665 Ry
     Harris-Foulkes estimate   =    -608.40418668 Ry
     estimated scf accuracy    <       0.00000006 Ry

     iteration #  9     ecut=    75.00 Ry     beta= 0.70
     Davidson diagonalization with overlap
     ethr =  8.92E-11,  avg # of iterations =  2.0

     total cpu time spent up to now is        4.1 secs

     End of self-consistent calculation

          k = 0.0000 0.0000 0.0000 (  5497 PWs)   bands (ev):

   -64.2877 -64.2764 -64.2764 -64.2756 -31.1082 -31.1082 -31.1082 -31.0644
   -31.0644 -31.0644 -31.0643 -31.0643 -31.0643 -31.0365 -31.0365 -31.0365
    -9.1234  -7.5784  -7.5782  -7.5782   4.0286   4.0286   4.0286   6.7370
     6.7370   6.7370   6.7373   6.7373   6.7373   8.0719   8.0719   8.0719

          k = 0.0000 0.0000 0.2500 (  5530 PWs)   bands (ev):

   -64.2860 -64.2779 -64.2764 -64.2758 -31.1021 -31.1021 -31.0989 -31.0710
   -31.0710 -31.0655 -31.0654 -31.0602 -31.0602 -31.0481 -31.0403 -31.0403
    -8.9019  -7.8077  -7.5467  -7.5466   4.3257   4.3257   4.3841   6.1933
     6.1933   6.5212   6.5216   6.9048   6.9048   7.0497   7.8431   7.8431

          k = 0.0000 0.0000-0.5000 (  5478 PWs)   bands (ev):

   -64.2821 -64.2816 -64.2764 -64.2758 -31.0865 -31.0865 -31.0863 -31.0863
   -31.0741 -31.0741 -31.0667 -31.0666 -31.0500 -31.0500 -31.0498 -31.0498
    -8.3591  -8.3590  -7.5147  -7.5146   5.1474   5.1474   5.1474   5.1474
     5.4627   5.4630   6.3163   6.3166   7.3441   7.3441   7.3441   7.3441

          k = 0.0000 0.2500 0.2500 (  5522 PWs)   bands (ev):

   -64.2845 -64.2778 -64.2774 -64.2762 -31.0986 -31.0985 -31.0960 -31.0833
   -31.0663 -31.0662 -31.0631 -31.0584 -31.0583 -31.0577 -31.0446 -31.0377
    -8.6994  -7.7372  -7.7371  -7.5508   4.4519   4.4519   4.6133   5.3844
     6.2172   6.3968   6.3972   6.8417   6.8418   6.9424   7.5545   7.8950

          k = 0.0000 0.2500-0.5000 (  5492 PWs)   bands (ev):

   -64.2813 -64.2808 -64.2772 -64.2766 -31.0944 -31.0943 -31.0850 -31.0849
   -31.0810 -31.0807 -31.0554 -31.0553 -31.0553 -31.0550 -31.0450 -31.0449
    -8.2127  -8.2126  -7.6104  -7.6104   4.7138   4.7138   5.0782   5.0784
     5.4040   5.4040   6.9030   6.9032   6.9346   6.9347   7.4680   7.4680

          k = 0.0000-0.5000-0.5000 (  5472 PWs)   bands (ev):

   -64.2792 -64.2792 -64.2792 -64.2782 -31.0961 -31.0959 -31.0958 -31.0958
   -31.0681 -31.0679 -31.0679 -31.0676 -31.0449 -31.0447 -31.0446 -31.0446
    -7.8864  -7.8863  -7.8863  -7.8863   4.5969   4.5969   4.5969   4.5971
     6.0968   6.0968   6.0971   6.0971   7.4324   7.4325   7.4325   7.4327

          k = 0.2500 0.2500 0.2500 (  5527 PWs)   bands (ev):

   -64.2833 -64.2778 -64.2778 -64.2770 -31.1037 -31.1034 -31.1034 -31.0788
   -31.0662 -31.0662 -31.0659 -31.0547 -31.0546 -31.0546 -31.0405 -31.0405
    -8.5179  -7.7004  -7.7002  -7.7002   4.2846   4.2847   4.2847   5.4318
     6.1778   6.1780   6.1780   7.0674   7.0674   7.0676   7.7391   7.7391

          k = 0.2500 0.2500-0.5000 (  5528 PWs)   bands (ev):

   -64.2807 -64.2802 -64.2778 -64.2772 -31.1079 -31.1077 -31.0986 -31.0985
   -31.0655 -31.0653 -31.0519 -31.0519 -31.0476 -31.0473 -31.0471 -31.0470
    -8.0935  -8.0935  -7.6629  -7.6628   4.0978   4.0978   4.5019   4.5020
     6.1610   6.1610   7.1000   7.1002   7.2329   7.2331   7.3879   7.3879

          k = 0.2500-0.5000-0.5000 (  5552 PWs)   bands (ev):

   -64.2792 -64.2792 -64.2792 -64.2782 -31.1118 -31.1115 -31.1115 -31.1115
   -31.0541 -31.0539 -31.0539 -31.0537 -31.0450 -31.0448 -31.0447 -31.0447
    -7.8447  -7.8446  -7.8446  -7.8446   3.9171   3.9172   3.9172   3.9173
     6.8773   6.8773   6.8775   6.8775   7.4325   7.4326   7.4326   7.4328

          k =-0.5000-0.5000-0.5000 (  5520 PWs)   bands (ev):

   -64.2792 -64.2792 -64.2792 -64.2782 -31.1214 -31.1211 -31.1211 -31.1211
   -31.0450 -31.0450 -31.0449 -31.0449 -31.0449 -31.0446 -31.0446 -31.0446
    -7.8023  -7.8021  -7.8021  -7.8021   3.4778   3.4779   3.4779   3.4779
     7.4327   7.4327   7.4327   7.4327   7.4327   7.4330   7.4330   7.4330

     highest occupied level (ev):     8.0719

!    total energy              =    -608.40418666 Ry
     Harris-Foulkes estimate   =    -608.40418666 Ry
     estimated scf accuracy    <          1.7E-09 Ry

     The total energy is the sum of the following terms:

     one-electron contribution =    -297.12650420 Ry
     hartree contribution      =     165.96411171 Ry
     xc contribution           =     -97.98931848 Ry
     ewald contribution        =    -379.25247568 Ry

     convergence has been achieved in   9 iterations

     Forces acting on atoms (cartesian axes, Ry/au):

     atom    1 type  1   force =     0.00000000    0.00000000    0.00000000
     atom    2 type  1   force =     0.00000000    0.00000000    0.00000000
     atom    3 type  1   force =     0.00000000    0.00000000    0.00000000
     atom    4 type  1   force =     0.00000000    0.00000000    0.00000000
     atom    5 type  2   force =     0.00000000    0.00000000   -0.00000000
     atom    6 type  2   force =     0.00000000    0.00000000   -0.00000000
     atom    7 type  2   force =     0.00000000    0.00000000    0.00000000
     atom    8 type  2   force =     0.00000000    0.00000000   -0.00000000

     Total force =     0.000000     Total SCF correction =     0.000000

     Writing output data file MgO_444.save/
 
     init_run     :      0.22s CPU      0.24s WALL (       1 calls)
     electrons    :      3.57s CPU      3.75s WALL (       1 calls)
     forces       :      0.05s CPU      0.05s WALL (       1 calls)

     Called by init_run:
     wfcinit      :      0.15s CPU      0.17s WALL (       1 calls)
     potinit      :      0.02s CPU      0.02s WALL (       1 calls)
     hinit0       :      0.03s CPU      0.03s WALL (       1 calls)

     Called by electrons:
     c_bands      :      3.09s CPU      3.20s WALL (       9 calls)
     sum_band     :      0.42s CPU      0.44s WALL (       9 calls)
     v_of_rho     :      0.05s CPU      0.05s WALL (      10 calls)
     mix_rho      :      0.01s CPU      0.01s WALL (       9 calls)

     Called by c_bands:
     init_us_2    :      0.04s CPU      0.04s WALL (     200 calls)
     cegterg      :      2.93s CPU      3.03s WALL (      90 calls)

     Called by sum_band:

     Called by *egterg:
     h_psi        :      2.18s CPU      2.28s WALL (     281 calls)
     g_psi        :      0.01s CPU      0.01s WALL (     181 calls)
     cdiaghg      :      0.53s CPU      0.54s WALL (     271 calls)

     Called by h_psi:
     h_psi:pot    :      2.17s CPU      2.27s WALL (     281 calls)
     h_psi:calbec :      0.13s CPU      0.14s WALL (     281 calls)
     vloc_psi     :      1.92s CPU      2.00s WALL (     281 calls)
     add_vuspsi   :      0.12s CPU      0.13s WALL (     281 calls)

     General routines
     calbec       :      0.15s CPU      0.16s WALL (     321 calls)
     fft          :      0.03s CPU      0.03s WALL (     110 calls)
     ffts         :      0.00s CPU      0.00s WALL (       9 calls)
     fftw         :      2.13s CPU      2.23s WALL (   18052 calls)
 
     Parallel routines
     fft_scatt_xy :      0.22s CPU      0.23s WALL (   18171 calls)
     fft_scatt_yz :      1.05s CPU      1.10s WALL (   18171 calls)
 
     PWSCF        :      4.12s CPU      5.17s WALL

 
   This run was terminated on:  18: 0:20   9Sep2020            

=------------------------------------------------------------------------------=
   JOB DONE.
=------------------------------------------------------------------------------=

     Program PWSCF v.6.4.1 starts on  9Sep2020 at 18: 0:21 

     This program is part of the open-source Quantum ESPRESSO suite
     for quantum simulation of materials; please cite
         "P. Giannozzi et al., J. Phys.:Condens. Matter 21 395502 (2009);
         "P. Giannozzi et al., J. Phys.:Condens. Matter 29 465901 (2017);
          URL http://www.quantum-espresso.org", 
     in publications or presentations arising from this work. More details at
     http://www.quantum-espresso.org/quote

     Parallel version (MPI & OpenMP), running on      20 processor cores
     Number of MPI processes:                20
     Threads/MPI process:                     1

     MPI processes distributed on     1 nodes
     R & G space division:  proc/nbgrp/npool/nimage =      20
     Reading input from /home/hpc/rzku/phyv025h/Exercise_sheet_1/Exercise_1/1_b/MgO_555.in

     Current dimensions of program PWSCF are:
     Max number of different atomic species (ntypx) = 10
     Max number of k-points (npk) =  40000
     Max angular momentum in pseudopotentials (lmaxx) =  3

     IMPORTANT: XC functional enforced from input :
     Exchange-correlation      = PBE ( 1  4  3  4 0 0)
     Any further DFT definition will be discarded
     Please, verify this is what you really want


     Subspace diagonalization in iterative solution of the eigenvalue problem:
     a serial algorithm will be used

     Found symmetry operation: I + ( -0.5000 -0.5000  0.0000)
     This is a supercell, fractional translations are disabled
     Message from routine setup:
     DEPRECATED: symmetry with ibrav=0, use correct ibrav instead
 
     Parallelization info
     --------------------
     sticks:   dense  smooth     PW     G-vecs:    dense   smooth      PW
     Min          74      74     21                 2192     2192     329
     Max          75      75     22                 2197     2197     334
     Sum        1489    1489    421                43867    43867    6619
 


     bravais-lattice index     =            0
     lattice parameter (alat)  =       7.9557  a.u.
     unit-cell volume          =     503.5503 (a.u.)^3
     number of atoms/cell      =            8
     number of atomic types    =            2
     number of electrons       =        64.00
     number of Kohn-Sham states=           32
     kinetic-energy cutoff     =      75.0000  Ry
     charge density cutoff     =     300.0000  Ry
     convergence threshold     =      1.0E-08
     mixing beta               =       0.7000
     number of iterations used =            8  plain     mixing
     Exchange-correlation      = PBE ( 1  4  3  4 0 0)

     celldm(1)=   7.955747  celldm(2)=   0.000000  celldm(3)=   0.000000
     celldm(4)=   0.000000  celldm(5)=   0.000000  celldm(6)=   0.000000

     crystal axes: (cart. coord. in units of alat)
               a(1) = (   1.000000   0.000000   0.000000 )  
               a(2) = (   0.000000   1.000000   0.000000 )  
               a(3) = (   0.000000   0.000000   1.000000 )  

     reciprocal axes: (cart. coord. in units 2 pi/alat)
               b(1) = (  1.000000  0.000000  0.000000 )  
               b(2) = (  0.000000  1.000000  0.000000 )  
               b(3) = (  0.000000  0.000000  1.000000 )  


     PseudoPot. # 1 for Mg read from file:
     ./Mg.nc.UPF
     MD5 check sum: 4c04d8c6e0476e83eaecaf72fa8acc4d
     Pseudo is Norm-conserving, Zval = 10.0
     Generated using ONCVPSP code by D. R. Hamann
     Using radial grid of 1510 points,  4 beta functions with: 
                l(1) =   0
                l(2) =   0
                l(3) =   1
                l(4) =   1

     PseudoPot. # 2 for O  read from file:
     ./O.nc.UPF
     MD5 check sum: 3e3f909f7470e8921608ab6b1f57bbae
     Pseudo is Norm-conserving + core correction, Zval =  6.0
     Generated using ONCVPSP code by D. R. Hamann
     Using radial grid of  936 points,  5 beta functions with: 
                l(1) =   0
                l(2) =   0
                l(3) =   1
                l(4) =   1
                l(5) =   2

     atomic species   valence    mass     pseudopotential
        Mg            10.00    24.30500     Mg( 1.00)
        O              6.00    15.99900     O ( 1.00)

     48 Sym. Ops., with inversion, found



   Cartesian axes

     site n.     atom                  positions (alat units)
         1           Mg  tau(   1) = (   0.0000000   0.0000000   0.0000000  )
         2           Mg  tau(   2) = (   0.5000000   0.5000000   0.0000000  )
         3           Mg  tau(   3) = (   0.5000000   0.0000000   0.5000000  )
         4           Mg  tau(   4) = (   0.0000000   0.5000000   0.5000000  )
         5           O   tau(   5) = (   0.5000000   0.0000000   0.0000000  )
         6           O   tau(   6) = (   0.0000000   0.5000000   0.0000000  )
         7           O   tau(   7) = (   0.0000000   0.0000000   0.5000000  )
         8           O   tau(   8) = (   0.5000000   0.5000000   0.5000000  )

     number of k points=    10
                       cart. coord. in units 2pi/alat
        k(    1) = (   0.0000000   0.0000000   0.0000000), wk =   0.0160000
        k(    2) = (   0.0000000   0.0000000   0.2000000), wk =   0.0960000
        k(    3) = (   0.0000000   0.0000000   0.4000000), wk =   0.0960000
        k(    4) = (   0.0000000   0.2000000   0.2000000), wk =   0.1920000
        k(    5) = (   0.0000000   0.2000000   0.4000000), wk =   0.3840000
        k(    6) = (   0.0000000   0.4000000   0.4000000), wk =   0.1920000
        k(    7) = (   0.2000000   0.2000000   0.2000000), wk =   0.1280000
        k(    8) = (   0.2000000   0.2000000   0.4000000), wk =   0.3840000
        k(    9) = (   0.2000000   0.4000000   0.4000000), wk =   0.3840000
        k(   10) = (   0.4000000   0.4000000   0.4000000), wk =   0.1280000

     Dense  grid:    43867 G-vectors     FFT dimensions: (  45,  45,  45)

     Estimated max dynamical RAM per process >       7.62 MB

     Estimated total dynamical RAM >     152.33 MB

     Check: negative core charge=   -0.000003

     Initial potential from superposition of free atoms

     starting charge   63.99678, renormalised to   64.00000
     Starting wfcs are   36 randomized atomic wfcs

     total cpu time spent up to now is        0.5 secs

     Self-consistent Calculation

     iteration #  1     ecut=    75.00 Ry     beta= 0.70
     Davidson diagonalization with overlap
     ethr =  1.00E-02,  avg # of iterations =  2.0

     total cpu time spent up to now is        0.9 secs

     total energy              =    -607.74214391 Ry
     Harris-Foulkes estimate   =    -608.85664415 Ry
     estimated scf accuracy    <       1.54953634 Ry

     iteration #  2     ecut=    75.00 Ry     beta= 0.70
     Davidson diagonalization with overlap
     ethr =  2.42E-03,  avg # of iterations =  2.8

     total cpu time spent up to now is        1.3 secs

     total energy              =    -608.13537714 Ry
     Harris-Foulkes estimate   =    -608.79362615 Ry
     estimated scf accuracy    <       1.35305823 Ry

     iteration #  3     ecut=    75.00 Ry     beta= 0.70
     Davidson diagonalization with overlap
     ethr =  2.11E-03,  avg # of iterations =  2.0

     total cpu time spent up to now is        1.7 secs

     total energy              =    -608.40300356 Ry
     Harris-Foulkes estimate   =    -608.40355541 Ry
     estimated scf accuracy    <       0.00634720 Ry

     iteration #  4     ecut=    75.00 Ry     beta= 0.70
     Davidson diagonalization with overlap
     ethr =  9.92E-06,  avg # of iterations =  2.0

     total cpu time spent up to now is        2.1 secs

     total energy              =    -608.40433468 Ry
     Harris-Foulkes estimate   =    -608.40437749 Ry
     estimated scf accuracy    <       0.00010521 Ry

     iteration #  5     ecut=    75.00 Ry     beta= 0.70
     Davidson diagonalization with overlap
     ethr =  1.64E-07,  avg # of iterations =  1.3

     total cpu time spent up to now is        2.4 secs

     total energy              =    -608.40434025 Ry
     Harris-Foulkes estimate   =    -608.40434000 Ry
     estimated scf accuracy    <       0.00001120 Ry

     iteration #  6     ecut=    75.00 Ry     beta= 0.70
     Davidson diagonalization with overlap
     ethr =  1.75E-08,  avg # of iterations =  2.0

     total cpu time spent up to now is        2.9 secs

     total energy              =    -608.40434219 Ry
     Harris-Foulkes estimate   =    -608.40434266 Ry
     estimated scf accuracy    <       0.00000133 Ry

     iteration #  7     ecut=    75.00 Ry     beta= 0.70
     Davidson diagonalization with overlap
     ethr =  2.07E-09,  avg # of iterations =  2.0

     total cpu time spent up to now is        3.3 secs

     total energy              =    -608.40434211 Ry
     Harris-Foulkes estimate   =    -608.40434227 Ry
     estimated scf accuracy    <       0.00000038 Ry

     iteration #  8     ecut=    75.00 Ry     beta= 0.70
     Davidson diagonalization with overlap
     ethr =  5.92E-10,  avg # of iterations =  2.0

     total cpu time spent up to now is        3.7 secs

     total energy              =    -608.40434214 Ry
     Harris-Foulkes estimate   =    -608.40434216 Ry
     estimated scf accuracy    <       0.00000004 Ry

     iteration #  9     ecut=    75.00 Ry     beta= 0.70
     Davidson diagonalization with overlap
     ethr =  6.61E-11,  avg # of iterations =  2.0

     total cpu time spent up to now is        4.2 secs

     End of self-consistent calculation

          k = 0.0000 0.0000 0.0000 (  5497 PWs)   bands (ev):

   -64.2874 -64.2761 -64.2761 -64.2753 -31.1080 -31.1080 -31.1080 -31.0642
   -31.0642 -31.0642 -31.0641 -31.0641 -31.0641 -31.0362 -31.0362 -31.0362
    -9.1235  -7.5785  -7.5783  -7.5783   4.0286   4.0286   4.0286   6.7369
     6.7369   6.7369   6.7372   6.7372   6.7372   8.0718   8.0718   8.0718

          k = 0.0000 0.0000 0.2000 (  5526 PWs)   bands (ev):

   -64.2863 -64.2770 -64.2761 -64.2754 -31.1042 -31.1042 -31.1020 -31.0686
   -31.0686 -31.0649 -31.0648 -31.0614 -31.0614 -31.0440 -31.0387 -31.0387
    -8.9793  -7.7280  -7.5566  -7.5565   4.2198   4.2198   4.2551   6.3726
     6.3726   6.5867   6.5870   6.8454   6.8454   7.3618   7.9211   7.9211

          k = 0.0000 0.0000 0.4000 (  5506 PWs)   bands (ev):

   -64.2834 -64.2798 -64.2761 -64.2755 -31.0931 -31.0931 -31.0851 -31.0794
   -31.0794 -31.0662 -31.0662 -31.0628 -31.0542 -31.0542 -31.0457 -31.0457
    -8.5977  -8.1189  -7.5209  -7.5208   4.7673   4.7673   4.9479   5.5687
     5.5687   6.0666   6.3547   6.3550   7.1455   7.1455   7.5536   7.5536

          k = 0.0000 0.2000 0.2000 (  5517 PWs)   bands (ev):

   -64.2853 -64.2771 -64.2767 -64.2757 -31.1006 -31.1005 -31.0998 -31.0774
   -31.0656 -31.0655 -31.0610 -31.0609 -31.0594 -31.0545 -31.0415 -31.0369
    -8.8429  -7.6893  -7.6892  -7.5497   4.3474   4.3475   4.4076   5.7522
     6.4971   6.4974   6.7144   6.7643   6.7644   6.8710   7.7437   7.9577

          k = 0.0000 0.2000 0.4000 (  5522 PWs)   bands (ev):

   -64.2827 -64.2794 -64.2767 -64.2760 -31.0960 -31.0901 -31.0892 -31.0881
   -31.0761 -31.0725 -31.0592 -31.0580 -31.0577 -31.0512 -31.0488 -31.0415
    -8.4845  -8.0424  -7.6092  -7.5553   4.6117   4.8123   4.9426   5.0709
     5.6660   5.7219   6.7052   6.8257   6.8425   7.1921   7.3148   7.6670

          k = 0.0000 0.4000 0.4000 (  5520 PWs)   bands (ev):

   -64.2808 -64.2787 -64.2782 -64.2770 -31.0961 -31.0958 -31.0958 -31.0874
   -31.0795 -31.0676 -31.0675 -31.0572 -31.0495 -31.0478 -31.0475 -31.0409
    -8.1956  -7.8587  -7.8586  -7.6705   4.5902   4.5903   4.6238   4.9952
     5.4395   6.1513   6.1517   6.7523   7.2202   7.2773   7.2774   7.6394

          k = 0.2000 0.2000 0.2000 (  5521 PWs)   bands (ev):

   -64.2844 -64.2771 -64.2771 -64.2762 -31.1012 -31.1010 -31.1010 -31.0692
   -31.0692 -31.0689 -31.0655 -31.0575 -31.0574 -31.0574 -31.0391 -31.0391
    -8.7147  -7.6650  -7.6649  -7.6649   4.3602   4.3602   4.3602   6.1152
     6.1170   6.1173   6.1173   6.9617   6.9617   6.9620   7.8387   7.8387

          k = 0.2000 0.2000 0.4000 (  5545 PWs)   bands (ev):

   -64.2820 -64.2792 -64.2771 -64.2764 -31.1025 -31.1024 -31.0968 -31.0831
   -31.0718 -31.0715 -31.0552 -31.0552 -31.0543 -31.0515 -31.0448 -31.0428
    -8.3813  -7.9782  -7.6251  -7.6250   4.3478   4.3478   4.5517   5.1921
     5.8529   5.8530   6.8455   6.9578   6.9580   7.2113   7.5300   7.5445

          k = 0.2000 0.4000 0.4000 (  5524 PWs)   bands (ev):

   -64.2805 -64.2787 -64.2783 -64.2773 -31.1085 -31.1063 -31.1061 -31.0986
   -31.0646 -31.0581 -31.0581 -31.0494 -31.0486 -31.0476 -31.0474 -31.0416
    -8.1222  -7.8305  -7.8304  -7.6939   4.0513   4.1448   4.1448   4.4855
     6.2000   6.6113   6.6115   7.1738   7.2582   7.2979   7.2979   7.5975

          k = 0.4000 0.4000 0.4000 (  5562 PWs)   bands (ev):

   -64.2796 -64.2787 -64.2787 -64.2777 -31.1175 -31.1173 -31.1173 -31.1133
   -31.0494 -31.0494 -31.0491 -31.0466 -31.0465 -31.0465 -31.0438 -31.0438
    -7.9502  -7.7844  -7.7842  -7.7842   3.6534   3.6535   3.6535   3.8346
     7.1012   7.1013   7.1013   7.3597   7.3597   7.3600   7.4894   7.4894

     highest occupied level (ev):     8.0718

!    total energy              =    -608.40434214 Ry
     Harris-Foulkes estimate   =    -608.40434214 Ry
     estimated scf accuracy    <          1.3E-09 Ry

     The total energy is the sum of the following terms:

     one-electron contribution =    -297.12707467 Ry
     hartree contribution      =     165.96450359 Ry
     xc contribution           =     -97.98929537 Ry
     ewald contribution        =    -379.25247568 Ry

     convergence has been achieved in   9 iterations

     Forces acting on atoms (cartesian axes, Ry/au):

     atom    1 type  1   force =     0.00000000    0.00000000    0.00000000
     atom    2 type  1   force =     0.00000000    0.00000000    0.00000000
     atom    3 type  1   force =     0.00000000    0.00000000   -0.00000000
     atom    4 type  1   force =     0.00000000    0.00000000   -0.00000000
     atom    5 type  2   force =     0.00000000    0.00000000   -0.00000000
     atom    6 type  2   force =     0.00000000    0.00000000    0.00000000
     atom    7 type  2   force =     0.00000000    0.00000000    0.00000000
     atom    8 type  2   force =     0.00000000    0.00000000    0.00000000

     Total force =     0.000000     Total SCF correction =     0.000000

     Writing output data file MgO_555.save/
 
     init_run     :      0.22s CPU      0.24s WALL (       1 calls)
     electrons    :      3.59s CPU      3.75s WALL (       1 calls)
     forces       :      0.05s CPU      0.05s WALL (       1 calls)

     Called by init_run:
     wfcinit      :      0.15s CPU      0.17s WALL (       1 calls)
     potinit      :      0.02s CPU      0.02s WALL (       1 calls)
     hinit0       :      0.03s CPU      0.03s WALL (       1 calls)

     Called by electrons:
     c_bands      :      3.11s CPU      3.21s WALL (       9 calls)
     sum_band     :      0.41s CPU      0.43s WALL (       9 calls)
     v_of_rho     :      0.05s CPU      0.05s WALL (      10 calls)
     mix_rho      :      0.01s CPU      0.01s WALL (       9 calls)

     Called by c_bands:
     init_us_2    :      0.04s CPU      0.04s WALL (     200 calls)
     cegterg      :      2.95s CPU      3.04s WALL (      90 calls)

     Called by sum_band:

     Called by *egterg:
     h_psi        :      2.20s CPU      2.29s WALL (     281 calls)
     g_psi        :      0.01s CPU      0.01s WALL (     181 calls)
     cdiaghg      :      0.54s CPU      0.55s WALL (     271 calls)

     Called by h_psi:
     h_psi:pot    :      2.19s CPU      2.27s WALL (     281 calls)
     h_psi:calbec :      0.13s CPU      0.14s WALL (     281 calls)
     vloc_psi     :      1.93s CPU      2.01s WALL (     281 calls)
     add_vuspsi   :      0.12s CPU      0.13s WALL (     281 calls)

     General routines
     calbec       :      0.15s CPU      0.16s WALL (     321 calls)
     fft          :      0.03s CPU      0.03s WALL (     110 calls)
     ffts         :      0.00s CPU      0.00s WALL (       9 calls)
     fftw         :      2.13s CPU      2.23s WALL (   18188 calls)
 
     Parallel routines
     fft_scatt_xy :      0.22s CPU      0.23s WALL (   18307 calls)
     fft_scatt_yz :      1.05s CPU      1.10s WALL (   18307 calls)
 
     PWSCF        :      4.14s CPU      5.18s WALL

 
   This run was terminated on:  18: 0:26   9Sep2020            

=------------------------------------------------------------------------------=
   JOB DONE.
=------------------------------------------------------------------------------=

     Program PWSCF v.6.4.1 starts on  9Sep2020 at 18: 0:27 

     This program is part of the open-source Quantum ESPRESSO suite
     for quantum simulation of materials; please cite
         "P. Giannozzi et al., J. Phys.:Condens. Matter 21 395502 (2009);
         "P. Giannozzi et al., J. Phys.:Condens. Matter 29 465901 (2017);
          URL http://www.quantum-espresso.org", 
     in publications or presentations arising from this work. More details at
     http://www.quantum-espresso.org/quote

     Parallel version (MPI & OpenMP), running on      20 processor cores
     Number of MPI processes:                20
     Threads/MPI process:                     1

     MPI processes distributed on     1 nodes
     R & G space division:  proc/nbgrp/npool/nimage =      20
     Reading input from /home/hpc/rzku/phyv025h/Exercise_sheet_1/Exercise_1/1_b/MgO_666.in

     Current dimensions of program PWSCF are:
     Max number of different atomic species (ntypx) = 10
     Max number of k-points (npk) =  40000
     Max angular momentum in pseudopotentials (lmaxx) =  3

     IMPORTANT: XC functional enforced from input :
     Exchange-correlation      = PBE ( 1  4  3  4 0 0)
     Any further DFT definition will be discarded
     Please, verify this is what you really want


     Subspace diagonalization in iterative solution of the eigenvalue problem:
     a serial algorithm will be used

     Found symmetry operation: I + ( -0.5000 -0.5000  0.0000)
     This is a supercell, fractional translations are disabled
     Message from routine setup:
     DEPRECATED: symmetry with ibrav=0, use correct ibrav instead
 
     Parallelization info
     --------------------
     sticks:   dense  smooth     PW     G-vecs:    dense   smooth      PW
     Min          74      74     21                 2192     2192     345
     Max          75      75     22                 2197     2197     350
     Sum        1489    1489    437                43867    43867    6931
 


     bravais-lattice index     =            0
     lattice parameter (alat)  =       7.9557  a.u.
     unit-cell volume          =     503.5503 (a.u.)^3
     number of atoms/cell      =            8
     number of atomic types    =            2
     number of electrons       =        64.00
     number of Kohn-Sham states=           32
     kinetic-energy cutoff     =      75.0000  Ry
     charge density cutoff     =     300.0000  Ry
     convergence threshold     =      1.0E-08
     mixing beta               =       0.7000
     number of iterations used =            8  plain     mixing
     Exchange-correlation      = PBE ( 1  4  3  4 0 0)

     celldm(1)=   7.955747  celldm(2)=   0.000000  celldm(3)=   0.000000
     celldm(4)=   0.000000  celldm(5)=   0.000000  celldm(6)=   0.000000

     crystal axes: (cart. coord. in units of alat)
               a(1) = (   1.000000   0.000000   0.000000 )  
               a(2) = (   0.000000   1.000000   0.000000 )  
               a(3) = (   0.000000   0.000000   1.000000 )  

     reciprocal axes: (cart. coord. in units 2 pi/alat)
               b(1) = (  1.000000  0.000000  0.000000 )  
               b(2) = (  0.000000  1.000000  0.000000 )  
               b(3) = (  0.000000  0.000000  1.000000 )  


     PseudoPot. # 1 for Mg read from file:
     ./Mg.nc.UPF
     MD5 check sum: 4c04d8c6e0476e83eaecaf72fa8acc4d
     Pseudo is Norm-conserving, Zval = 10.0
     Generated using ONCVPSP code by D. R. Hamann
     Using radial grid of 1510 points,  4 beta functions with: 
                l(1) =   0
                l(2) =   0
                l(3) =   1
                l(4) =   1

     PseudoPot. # 2 for O  read from file:
     ./O.nc.UPF
     MD5 check sum: 3e3f909f7470e8921608ab6b1f57bbae
     Pseudo is Norm-conserving + core correction, Zval =  6.0
     Generated using ONCVPSP code by D. R. Hamann
     Using radial grid of  936 points,  5 beta functions with: 
                l(1) =   0
                l(2) =   0
                l(3) =   1
                l(4) =   1
                l(5) =   2

     atomic species   valence    mass     pseudopotential
        Mg            10.00    24.30500     Mg( 1.00)
        O              6.00    15.99900     O ( 1.00)

     48 Sym. Ops., with inversion, found



   Cartesian axes

     site n.     atom                  positions (alat units)
         1           Mg  tau(   1) = (   0.0000000   0.0000000   0.0000000  )
         2           Mg  tau(   2) = (   0.5000000   0.5000000   0.0000000  )
         3           Mg  tau(   3) = (   0.5000000   0.0000000   0.5000000  )
         4           Mg  tau(   4) = (   0.0000000   0.5000000   0.5000000  )
         5           O   tau(   5) = (   0.5000000   0.0000000   0.0000000  )
         6           O   tau(   6) = (   0.0000000   0.5000000   0.0000000  )
         7           O   tau(   7) = (   0.0000000   0.0000000   0.5000000  )
         8           O   tau(   8) = (   0.5000000   0.5000000   0.5000000  )

     number of k points=    20
                       cart. coord. in units 2pi/alat
        k(    1) = (   0.0000000   0.0000000   0.0000000), wk =   0.0092593
        k(    2) = (   0.0000000   0.0000000   0.1666667), wk =   0.0555556
        k(    3) = (   0.0000000   0.0000000   0.3333333), wk =   0.0555556
        k(    4) = (   0.0000000   0.0000000  -0.5000000), wk =   0.0277778
        k(    5) = (   0.0000000   0.1666667   0.1666667), wk =   0.1111111
        k(    6) = (   0.0000000   0.1666667   0.3333333), wk =   0.2222222
        k(    7) = (   0.0000000   0.1666667  -0.5000000), wk =   0.1111111
        k(    8) = (   0.0000000   0.3333333   0.3333333), wk =   0.1111111
        k(    9) = (   0.0000000   0.3333333  -0.5000000), wk =   0.1111111
        k(   10) = (   0.0000000  -0.5000000  -0.5000000), wk =   0.0277778
        k(   11) = (   0.1666667   0.1666667   0.1666667), wk =   0.0740741
        k(   12) = (   0.1666667   0.1666667   0.3333333), wk =   0.2222222
        k(   13) = (   0.1666667   0.1666667  -0.5000000), wk =   0.1111111
        k(   14) = (   0.1666667   0.3333333   0.3333333), wk =   0.2222222
        k(   15) = (   0.1666667   0.3333333  -0.5000000), wk =   0.2222222
        k(   16) = (   0.1666667  -0.5000000  -0.5000000), wk =   0.0555556
        k(   17) = (   0.3333333   0.3333333   0.3333333), wk =   0.0740741
        k(   18) = (   0.3333333   0.3333333  -0.5000000), wk =   0.1111111
        k(   19) = (   0.3333333  -0.5000000  -0.5000000), wk =   0.0555556
        k(   20) = (  -0.5000000  -0.5000000  -0.5000000), wk =   0.0092593

     Dense  grid:    43867 G-vectors     FFT dimensions: (  45,  45,  45)

     Estimated max dynamical RAM per process >       8.96 MB

     Estimated total dynamical RAM >     179.28 MB

     Check: negative core charge=   -0.000003

     Initial potential from superposition of free atoms

     starting charge   63.99678, renormalised to   64.00000
     Starting wfcs are   36 randomized atomic wfcs

     total cpu time spent up to now is        0.7 secs

     Self-consistent Calculation

     iteration #  1     ecut=    75.00 Ry     beta= 0.70
     Davidson diagonalization with overlap
     ethr =  1.00E-02,  avg # of iterations =  2.0

     total cpu time spent up to now is        1.4 secs

     total energy              =    -607.74203069 Ry
     Harris-Foulkes estimate   =    -608.85651073 Ry
     estimated scf accuracy    <       1.54963947 Ry

     iteration #  2     ecut=    75.00 Ry     beta= 0.70
     Davidson diagonalization with overlap
     ethr =  2.42E-03,  avg # of iterations =  2.9

     total cpu time spent up to now is        2.3 secs

     total energy              =    -608.13523612 Ry
     Harris-Foulkes estimate   =    -608.79351086 Ry
     estimated scf accuracy    <       1.35313317 Ry

     iteration #  3     ecut=    75.00 Ry     beta= 0.70
     Davidson diagonalization with overlap
     ethr =  2.11E-03,  avg # of iterations =  2.0

     total cpu time spent up to now is        3.1 secs

     total energy              =    -608.40289426 Ry
     Harris-Foulkes estimate   =    -608.40345068 Ry
     estimated scf accuracy    <       0.00634163 Ry

     iteration #  4     ecut=    75.00 Ry     beta= 0.70
     Davidson diagonalization with overlap
     ethr =  9.91E-06,  avg # of iterations =  2.0

     total cpu time spent up to now is        3.9 secs

     total energy              =    -608.40423993 Ry
     Harris-Foulkes estimate   =    -608.40428249 Ry
     estimated scf accuracy    <       0.00010549 Ry

     iteration #  5     ecut=    75.00 Ry     beta= 0.70
     Davidson diagonalization with overlap
     ethr =  1.65E-07,  avg # of iterations =  1.4

     total cpu time spent up to now is        4.5 secs

     total energy              =    -608.40424567 Ry
     Harris-Foulkes estimate   =    -608.40424525 Ry
     estimated scf accuracy    <       0.00001137 Ry

     iteration #  6     ecut=    75.00 Ry     beta= 0.70
     Davidson diagonalization with overlap
     ethr =  1.78E-08,  avg # of iterations =  2.0

     total cpu time spent up to now is        5.5 secs

     total energy              =    -608.40424759 Ry
     Harris-Foulkes estimate   =    -608.40424809 Ry
     estimated scf accuracy    <       0.00000135 Ry

     iteration #  7     ecut=    75.00 Ry     beta= 0.70
     Davidson diagonalization with overlap
     ethr =  2.11E-09,  avg # of iterations =  2.0

     total cpu time spent up to now is        6.2 secs

     total energy              =    -608.40424754 Ry
     Harris-Foulkes estimate   =    -608.40424770 Ry
     estimated scf accuracy    <       0.00000039 Ry

     iteration #  8     ecut=    75.00 Ry     beta= 0.70
     Davidson diagonalization with overlap
     ethr =  6.04E-10,  avg # of iterations =  2.0

     total cpu time spent up to now is        7.0 secs

     total energy              =    -608.40424755 Ry
     Harris-Foulkes estimate   =    -608.40424758 Ry
     estimated scf accuracy    <       0.00000006 Ry

     iteration #  9     ecut=    75.00 Ry     beta= 0.70
     Davidson diagonalization with overlap
     ethr =  9.16E-11,  avg # of iterations =  2.0

     total cpu time spent up to now is        7.9 secs

     End of self-consistent calculation

          k = 0.0000 0.0000 0.0000 (  5497 PWs)   bands (ev):

   -64.2875 -64.2762 -64.2762 -64.2754 -31.1080 -31.1080 -31.1080 -31.0643
   -31.0643 -31.0643 -31.0642 -31.0642 -31.0642 -31.0363 -31.0363 -31.0363
    -9.1235  -7.5785  -7.5784  -7.5784   4.0285   4.0285   4.0285   6.7369
     6.7369   6.7369   6.7372   6.7372   6.7372   8.0717   8.0717   8.0717

          k = 0.0000 0.0000 0.1667 (  5514 PWs)   bands (ev):

   -64.2867 -64.2769 -64.2762 -64.2756 -31.1054 -31.1054 -31.1042 -31.0672
   -31.0672 -31.0648 -31.0647 -31.0625 -31.0625 -31.0417 -31.0379 -31.0379
    -9.0225  -7.6833  -7.5627  -7.5626   4.1618   4.1618   4.1853   6.4773
     6.4773   6.6276   6.6280   6.8126   6.8126   7.5534   7.9655   7.9655

          k = 0.0000 0.0000 0.3333 (  5554 PWs)   bands (ev):

   -64.2846 -64.2789 -64.2762 -64.2756 -31.0975 -31.0975 -31.0922 -31.0755
   -31.0755 -31.0663 -31.0662 -31.0572 -31.0572 -31.0557 -31.0431 -31.0431
    -8.7442  -7.9699  -7.5308  -7.5308   4.5492   4.5492   4.6646   5.8547
     5.8547   6.4173   6.4177   6.5011   7.0279   7.0279   7.6894   7.6894

          k = 0.0000 0.0000-0.5000 (  5478 PWs)   bands (ev):

   -64.2820 -64.2815 -64.2762 -64.2756 -31.0864 -31.0864 -31.0862 -31.0862
   -31.0740 -31.0740 -31.0666 -31.0665 -31.0499 -31.0499 -31.0496 -31.0496
    -8.3592  -8.3591  -7.5148  -7.5147   5.1473   5.1473   5.1473   5.1473
     5.4626   5.4629   6.3162   6.3165   7.3440   7.3440   7.3440   7.3440

          k = 0.0000 0.1667 0.1667 (  5505 PWs)   bands (ev):

   -64.2860 -64.2770 -64.2766 -64.2758 -31.1024 -31.1024 -31.1023 -31.0736
   -31.0653 -31.0652 -31.0622 -31.0621 -31.0609 -31.0496 -31.0399 -31.0368
    -8.9252  -7.6592  -7.6591  -7.5541   4.2701   4.2701   4.2934   6.0002
     6.5610   6.5613   6.7384   6.7384   6.8310   7.0453   7.8456   7.9923

          k = 0.0000 0.1667 0.3333 (  5528 PWs)   bands (ev):

   -64.2841 -64.2787 -64.2767 -64.2760 -31.0981 -31.0945 -31.0939 -31.0827
   -31.0732 -31.0638 -31.0616 -31.0598 -31.0595 -31.0555 -31.0453 -31.0400
    -8.6581  -7.9252  -7.6043  -7.5431   4.5103   4.6270   4.6752   5.3951
     5.9552   6.1392   6.6256   6.7890   6.7998   7.0302   7.5364   7.7817

          k = 0.0000 0.1667-0.5000 (  5498 PWs)   bands (ev):

   -64.2816 -64.2811 -64.2766 -64.2760 -31.0912 -31.0910 -31.0837 -31.0835
   -31.0799 -31.0799 -31.0603 -31.0603 -31.0524 -31.0522 -31.0470 -31.0468
    -8.2916  -8.2915  -7.5571  -7.5571   4.8857   4.8857   5.2630   5.2630
     5.2685   5.2687   6.6468   6.6470   7.1509   7.1509   7.4146   7.4146

          k = 0.0000 0.3333 0.3333 (  5514 PWs)   bands (ev):

   -64.2825 -64.2784 -64.2779 -64.2765 -31.0967 -31.0964 -31.0917 -31.0871
   -31.0773 -31.0670 -31.0670 -31.0531 -31.0524 -31.0522 -31.0509 -31.0391
    -8.4248  -7.8130  -7.8130  -7.5902   4.5598   4.5598   4.8724   5.0391
     5.4655   6.2425   6.2428   7.0692   7.0692   7.0875   7.1467   7.7638

          k = 0.0000 0.3333-0.5000 (  5506 PWs)   bands (ev):

   -64.2805 -64.2801 -64.2777 -64.2770 -31.0963 -31.0962 -31.0897 -31.0897
   -31.0771 -31.0769 -31.0590 -31.0588 -31.0508 -31.0508 -31.0436 -31.0435
    -8.1130  -8.1129  -7.6852  -7.6851   4.5967   4.5968   4.8803   4.8805
     5.5952   5.5952   6.6697   6.6698   7.1331   7.1333   7.4998   7.4999

          k = 0.0000-0.5000-0.5000 (  5472 PWs)   bands (ev):

   -64.2791 -64.2791 -64.2791 -64.2780 -31.0960 -31.0958 -31.0957 -31.0957
   -31.0680 -31.0678 -31.0678 -31.0675 -31.0448 -31.0446 -31.0445 -31.0445
    -7.8866  -7.8864  -7.8864  -7.8864   4.5968   4.5968   4.5968   4.5970
     6.0967   6.0967   6.0970   6.0970   7.4323   7.4324   7.4324   7.4326

          k = 0.1667 0.1667 0.1667 (  5521 PWs)   bands (ev):

   -64.2854 -64.2769 -64.2769 -64.2761 -31.1016 -31.1015 -31.1015 -31.0696
   -31.0696 -31.0694 -31.0595 -31.0595 -31.0595 -31.0573 -31.0384 -31.0384
    -8.8317  -7.6421  -7.6420  -7.6420   4.3263   4.3263   4.3263   6.1933
     6.1936   6.1936   6.5762   6.8981   6.8981   6.8983   7.9018   7.9018

          k = 0.1667 0.1667 0.3333 (  5529 PWs)   bands (ev):

   -64.2835 -64.2786 -64.2769 -64.2763 -31.1000 -31.0999 -31.0970 -31.0742
   -31.0740 -31.0719 -31.0592 -31.0576 -31.0576 -31.0550 -31.0427 -31.0406
    -8.5764  -7.8869  -7.6076  -7.6075   4.4477   4.4477   4.5264   5.7515
     5.7892   5.7893   6.6618   6.8787   6.8789   7.0885   7.6654   7.6955

          k = 0.1667 0.1667-0.5000 (  5500 PWs)   bands (ev):

   -64.2813 -64.2808 -64.2769 -64.2763 -31.0992 -31.0990 -31.0866 -31.0865
   -31.0758 -31.0756 -31.0570 -31.0570 -31.0487 -31.0485 -31.0482 -31.0480
    -8.2293  -8.2292  -7.5901  -7.5901   4.5129   4.5130   5.0098   5.0100
     5.6318   5.6319   6.8208   6.8211   7.2201   7.2202   7.3658   7.3658

          k = 0.1667 0.3333 0.3333 (  5505 PWs)   bands (ev):

   -64.2821 -64.2784 -64.2780 -64.2769 -31.1037 -31.1026 -31.1024 -31.0858
   -31.0718 -31.0622 -31.0621 -31.0519 -31.0518 -31.0516 -31.0462 -31.0399
    -8.3566  -7.7934  -7.7934  -7.6303   4.2780   4.3157   4.3157   5.0704
     5.8062   6.4108   6.4110   7.1290   7.1315   7.1316   7.3951   7.7146

          k = 0.1667 0.3333-0.5000 (  5526 PWs)   bands (ev):

   -64.2803 -64.2799 -64.2778 -64.2772 -31.1054 -31.1053 -31.0977 -31.0976
   -31.0672 -31.0670 -31.0532 -31.0530 -31.0501 -31.0501 -31.0443 -31.0442
    -8.0668  -8.0667  -7.6940  -7.6940   4.1951   4.1951   4.5318   4.5319
     6.0829   6.0830   6.9653   6.9653   7.1747   7.1749   7.4711   7.4712

          k = 0.1667-0.5000-0.5000 (  5524 PWs)   bands (ev):

   -64.2791 -64.2791 -64.2791 -64.2780 -31.1051 -31.1048 -31.1048 -31.1048
   -31.0599 -31.0596 -31.0596 -31.0594 -31.0449 -31.0447 -31.0446 -31.0446
    -7.8658  -7.8656  -7.8656  -7.8656   4.2022   4.2023   4.2023   4.2024
     6.5399   6.5399   6.5401   6.5401   7.4323   7.4325   7.4325   7.4326

          k = 0.3333 0.3333 0.3333 (  5532 PWs)   bands (ev):

   -64.2810 -64.2784 -64.2784 -64.2775 -31.1115 -31.1113 -31.1113 -31.1000
   -31.0565 -31.0565 -31.0562 -31.0496 -31.0495 -31.0495 -31.0425 -31.0425
    -8.1773  -7.7538  -7.7537  -7.7537   3.9288   3.9289   3.9289   4.4236
     6.6520   6.6522   6.6522   7.2451   7.2451   7.2453   7.5829   7.5829

          k = 0.3333 0.3333-0.5000 (  5566 PWs)   bands (ev):

   -64.2798 -64.2794 -64.2784 -64.2777 -31.1152 -31.1151 -31.1100 -31.1098
   -31.0554 -31.0551 -31.0480 -31.0479 -31.0462 -31.0459 -31.0459 -31.0459
    -7.9516  -7.9515  -7.7338  -7.7337   3.7641   3.7642   3.9859   3.9860
     6.7512   6.7512   7.2919   7.2921   7.3131   7.3133   7.4101   7.4101

          k = 0.3333-0.5000-0.5000 (  5548 PWs)   bands (ev):

   -64.2791 -64.2791 -64.2791 -64.2780 -31.1170 -31.1167 -31.1167 -31.1167
   -31.0491 -31.0488 -31.0488 -31.0487 -31.0449 -31.0447 -31.0446 -31.0446
    -7.8237  -7.8236  -7.8236  -7.8236   3.6821   3.6822   3.6822   3.6822
     7.1680   7.1680   7.1682   7.1682   7.4325   7.4326   7.4326   7.4328

          k =-0.5000-0.5000-0.5000 (  5520 PWs)   bands (ev):

   -64.2791 -64.2791 -64.2791 -64.2780 -31.1213 -31.1210 -31.1210 -31.1210
   -31.0449 -31.0449 -31.0447 -31.0447 -31.0447 -31.0445 -31.0445 -31.0445
    -7.8024  -7.8022  -7.8022  -7.8022   3.4777   3.4778   3.4778   3.4778
     7.4326   7.4326   7.4326   7.4326   7.4326   7.4328   7.4328   7.4328

     highest occupied level (ev):     8.0717

!    total energy              =    -608.40424756 Ry
     Harris-Foulkes estimate   =    -608.40424756 Ry
     estimated scf accuracy    <          2.0E-09 Ry

     The total energy is the sum of the following terms:

     one-electron contribution =    -297.12661381 Ry
     hartree contribution      =     165.96411259 Ry
     xc contribution           =     -97.98927066 Ry
     ewald contribution        =    -379.25247568 Ry

     convergence has been achieved in   9 iterations

     Forces acting on atoms (cartesian axes, Ry/au):

     atom    1 type  1   force =     0.00000000   -0.00000000    0.00000000
     atom    2 type  1   force =     0.00000000    0.00000000   -0.00000000
     atom    3 type  1   force =     0.00000000    0.00000000    0.00000000
[...]
    -8.5370  -7.8668  -7.6915  -7.5746   4.4627   4.5445   4.6161   5.3689
     5.6924   6.0795   6.5461   6.8818   6.9872   7.0643   7.4284   7.7866

          k = 0.0833 0.2500 0.4167 (  5520 PWs)   bands (ev):

   -64.2820 -64.2795 -64.2771 -64.2764 -31.0983 -31.0966 -31.0926 -31.0805
   -31.0801 -31.0735 -31.0579 -31.0556 -31.0548 -31.0498 -31.0494 -31.0415
    -8.3732  -8.0257  -7.6509  -7.5902   4.5087   4.6260   4.7299   5.3161
     5.3886   5.8096   6.7679   6.8917   6.9676   7.2192   7.2558   7.6387

          k = 0.0833 0.2500-0.5000 (  5518 PWs)   bands (ev):

   -64.2810 -64.2805 -64.2771 -64.2764 -31.0976 -31.0974 -31.0870 -31.0870
   -31.0775 -31.0773 -31.0549 -31.0549 -31.0538 -31.0535 -31.0451 -31.0449
    -8.1987  -8.1984  -7.6161  -7.6158   4.5703   4.5703   4.9896   4.9898
     5.5620   5.5622   6.9263   6.9266   6.9954   6.9956   7.4543   7.4544

          k = 0.0833 0.3333 0.3333 (  5529 PWs)   bands (ev):

   -64.2823 -64.2783 -64.2779 -64.2765 -31.0984 -31.0982 -31.0975 -31.0806
   -31.0798 -31.0656 -31.0655 -31.0529 -31.0523 -31.0520 -31.0493 -31.0393
    -8.4074  -7.8079  -7.8077  -7.6002   4.4890   4.4891   4.5785   5.3488
     5.3763   6.2926   6.2931   7.0860   7.0861   7.0979   7.2274   7.7511

          k = 0.0833 0.3333 0.4167 (  5516 PWs)   bands (ev):

   -64.2813 -64.2791 -64.2778 -64.2768 -31.0993 -31.0987 -31.0958 -31.0865
   -31.0775 -31.0695 -31.0612 -31.0530 -31.0512 -31.0510 -31.0476 -31.0409
    -8.2583  -7.9472  -7.7456  -7.6377   4.4547   4.5071   4.5928   5.0348
     5.5260   6.0202   6.5217   6.9995   7.1171   7.1447   7.2979   7.6494

          k = 0.0833 0.3333-0.5000 (  5516 PWs)   bands (ev):

   -64.2804 -64.2800 -64.2776 -64.2770 -31.0995 -31.0993 -31.0921 -31.0920
   -31.0737 -31.0735 -31.0572 -31.0569 -31.0506 -31.0505 -31.0438 -31.0436
    -8.1011  -8.1009  -7.6873  -7.6870   4.4589   4.4589   4.7770   4.7772
     5.7547   5.7548   6.7600   6.7602   7.1436   7.1438   7.4926   7.4926

          k = 0.0833 0.4167 0.4167 (  5511 PWs)   bands (ev):

   -64.2805 -64.2788 -64.2784 -64.2773 -31.0998 -31.0986 -31.0984 -31.0920
   -31.0737 -31.0653 -31.0652 -31.0567 -31.0485 -31.0469 -31.0466 -31.0414
    -8.1277  -7.8617  -7.8614  -7.7007   4.4326   4.4827   4.4828   4.7855
     5.7325   6.2513   6.2517   6.7537   7.2606   7.3236   7.3238   7.6000

          k = 0.0833 0.4167-0.5000 (  5508 PWs)   bands (ev):

   -64.2797 -64.2794 -64.2783 -64.2776 -31.0999 -31.0998 -31.0960 -31.0959
   -31.0696 -31.0694 -31.0611 -31.0609 -31.0470 -31.0469 -31.0436 -31.0435
    -7.9921  -7.9918  -7.7771  -7.7769   4.4245   4.4245   4.5955   4.5957
     5.9813   5.9815   6.4992   6.4994   7.3165   7.3167   7.4891   7.4892

          k = 0.0833-0.5000-0.5000 (  5516 PWs)   bands (ev):

   -64.2790 -64.2790 -64.2790 -64.2779 -31.0989 -31.0987 -31.0986 -31.0986
   -31.0655 -31.0653 -31.0653 -31.0650 -31.0449 -31.0447 -31.0445 -31.0445
    -7.8813  -7.8808  -7.8808  -7.8808   4.4722   4.4722   4.4723   4.4724
     6.2335   6.2338   6.2341   6.2341   7.4323   7.4323   7.4323   7.4326

          k = 0.1667 0.1667 0.1667 (  5521 PWs)   bands (ev):

   -64.2853 -64.2769 -64.2769 -64.2760 -31.1015 -31.1014 -31.1014 -31.0695
   -31.0695 -31.0693 -31.0594 -31.0594 -31.0594 -31.0573 -31.0383 -31.0383
    -8.8317  -7.6423  -7.6419  -7.6419   4.3263   4.3263   4.3263   6.1932
     6.1936   6.1936   6.5762   6.8980   6.8980   6.8984   7.9017   7.9017

          k = 0.1667 0.1667 0.2500 (  5503 PWs)   bands (ev):

   -64.2845 -64.2775 -64.2769 -64.2762 -31.1006 -31.1004 -31.0999 -31.0719
   -31.0718 -31.0647 -31.0642 -31.0580 -31.0580 -31.0575 -31.0400 -31.0386
    -8.7209  -7.7476  -7.6250  -7.6247   4.3855   4.3856   4.3954   5.9711
     5.9713   6.1711   6.4054   6.9098   6.9101   6.9795   7.7973   7.8427

          k = 0.1667 0.1667 0.3333 (  5529 PWs)   bands (ev):

   -64.2834 -64.2785 -64.2769 -64.2762 -31.1000 -31.0998 -31.0970 -31.0741
   -31.0739 -31.0718 -31.0591 -31.0576 -31.0576 -31.0549 -31.0427 -31.0406
    -8.5765  -7.8870  -7.6077  -7.6074   4.4477   4.4477   4.5264   5.7515
     5.7891   5.7893   6.6618   6.8786   6.8789   7.0885   7.6654   7.6955

          k = 0.1667 0.1667 0.4167 (  5541 PWs)   bands (ev):

   -64.2823 -64.2796 -64.2769 -64.2763 -31.0995 -31.0993 -31.0926 -31.0794
   -31.0755 -31.0753 -31.0573 -31.0573 -31.0536 -31.0518 -31.0456 -31.0439
    -8.4086  -8.0512  -7.5949  -7.5947   4.4951   4.4951   4.7307   5.3558
     5.6718   5.6720   6.8384   6.8387   6.9402   7.2196   7.4796   7.5177

          k = 0.1667 0.1667-0.5000 (  5500 PWs)   bands (ev):

   -64.2812 -64.2807 -64.2769 -64.2763 -31.0991 -31.0989 -31.0865 -31.0865
   -31.0758 -31.0755 -31.0570 -31.0570 -31.0487 -31.0484 -31.0481 -31.0480
    -8.2294  -8.2292  -7.5903  -7.5900   4.5129   4.5129   5.0098   5.0100
     5.6317   5.6319   6.8208   6.8211   7.2201   7.2201   7.3657   7.3659

          k = 0.1667 0.2500 0.2500 (  5525 PWs)   bands (ev):

   -64.2838 -64.2776 -64.2773 -64.2764 -31.1013 -31.1010 -31.1009 -31.0732
   -31.0715 -31.0662 -31.0660 -31.0562 -31.0561 -31.0560 -31.0415 -31.0389
    -8.6162  -7.7191  -7.7188  -7.6182   4.3716   4.3717   4.3854   5.7942
     5.8201   6.2437   6.2440   6.9958   6.9960   6.9990   7.7049   7.8227

          k = 0.1667 0.2500 0.3333 (  5534 PWs)   bands (ev):

   -64.2828 -64.2783 -64.2773 -64.2765 -31.1021 -31.1019 -31.0998 -31.0789
   -31.0735 -31.0678 -31.0602 -31.0551 -31.0546 -31.0535 -31.0439 -31.0399
    -8.4804  -7.8443  -7.6866  -7.6149   4.3433   4.3676   4.4228   5.4114
     5.7543   6.0998   6.5470   6.9874   7.0295   7.1118   7.5568   7.7363

          k = 0.1667 0.2500 0.4167 (  5531 PWs)   bands (ev):

   -64.2817 -64.2794 -64.2773 -64.2766 -31.1028 -31.1026 -31.0970 -31.0859
   -31.0727 -31.0695 -31.0549 -31.0542 -31.0538 -31.0499 -31.0468 -31.0423
    -8.3236  -7.9937  -7.6562  -7.6190   4.3221   4.3394   4.5548   5.0615
     5.7758   5.9714   6.8511   6.9818   7.0189   7.2540   7.3675   7.5881

          k = 0.1667 0.2500-0.5000 (  5532 PWs)   bands (ev):

   -64.2808 -64.2803 -64.2773 -64.2766 -31.1030 -31.1028 -31.0923 -31.0922
   -31.0714 -31.0711 -31.0537 -31.0537 -31.0505 -31.0503 -31.0460 -31.0458
    -8.1574  -8.1572  -7.6330  -7.6327   4.3201   4.3201   4.7703   4.7704
     5.8580   5.8582   6.9947   6.9950   7.1312   7.1312   7.4169   7.4170

          k = 0.1667 0.3333 0.3333 (  5505 PWs)   bands (ev):

   -64.2820 -64.2783 -64.2779 -64.2768 -31.1037 -31.1025 -31.1024 -31.0857
   -31.0718 -31.0621 -31.0621 -31.0519 -31.0518 -31.0516 -31.0462 -31.0398
    -8.3567  -7.7936  -7.7933  -7.6303   4.2780   4.3156   4.3157   5.0704
     5.8062   6.4107   6.4110   7.1290   7.1314   7.1317   7.3950   7.7145

          k = 0.1667 0.3333 0.4167 (  5515 PWs)   bands (ev):

   -64.2811 -64.2790 -64.2779 -64.2770 -31.1051 -31.1044 -31.1010 -31.0924
   -31.0696 -31.0644 -31.0571 -31.0505 -31.0505 -31.0494 -31.0478 -31.0413
    -8.2151  -7.9228  -7.7412  -7.6564   4.2124   4.2326   4.3781   4.7683
     5.9251   6.2523   6.7025   7.1548   7.1730   7.1966   7.2994   7.6192

          k = 0.1667 0.3333-0.5000 (  5526 PWs)   bands (ev):

   -64.2803 -64.2798 -64.2778 -64.2771 -31.1054 -31.1052 -31.0976 -31.0975
   -31.0672 -31.0669 -31.0532 -31.0529 -31.0501 -31.0500 -31.0443 -31.0441
    -8.0669  -8.0666  -7.6942  -7.6939   4.1951   4.1951   4.5318   4.5319
     6.0828   6.0830   6.9653   6.9653   7.1747   7.1749   7.4711   7.4711

          k = 0.1667 0.4167 0.4167 (  5533 PWs)   bands (ev):

   -64.2803 -64.2788 -64.2784 -64.2774 -31.1064 -31.1043 -31.1041 -31.0980
   -31.0665 -31.0601 -31.0601 -31.0526 -31.0482 -31.0469 -31.0466 -31.0419
    -8.0926  -7.8467  -7.8464  -7.7081   4.1460   4.2361   4.2362   4.5166
     6.1082   6.5151   6.5155   6.9918   7.2774   7.3301   7.3303   7.5817

          k = 0.1667 0.4167-0.5000 (  5524 PWs)   bands (ev):

   -64.2797 -64.2793 -64.2784 -64.2776 -31.1060 -31.1059 -31.1019 -31.1018
   -31.0634 -31.0632 -31.0563 -31.0560 -31.0469 -31.0468 -31.0437 -31.0436
    -7.9666  -7.9663  -7.7730  -7.7727   4.1542   4.1543   4.3335   4.3336
     6.3106   6.3108   6.7624   6.7625   7.3274   7.3276   7.4802   7.4803

          k = 0.1667-0.5000-0.5000 (  5524 PWs)   bands (ev):

   -64.2790 -64.2790 -64.2790 -64.2779 -31.1050 -31.1048 -31.1047 -31.1047
   -31.0598 -31.0596 -31.0596 -31.0593 -31.0449 -31.0447 -31.0445 -31.0445
    -7.8661  -7.8656  -7.8656  -7.8656   4.2023   4.2023   4.2023   4.2024
     6.5397   6.5399   6.5401   6.5401   7.4323   7.4323   7.4324   7.4327

          k = 0.2500 0.2500 0.2500 (  5527 PWs)   bands (ev):

   -64.2831 -64.2776 -64.2776 -64.2767 -31.1035 -31.1033 -31.1033 -31.0787
   -31.0661 -31.0661 -31.0658 -31.0545 -31.0545 -31.0545 -31.0403 -31.0403
    -8.5180  -7.7007  -7.7003  -7.7003   4.2845   4.2845   4.2846   5.4317
     6.1775   6.1779   6.1779   7.0672   7.0672   7.0675   7.7389   7.7389

          k = 0.2500 0.2500 0.3333 (  5534 PWs)   bands (ev):

   -64.2823 -64.2783 -64.2776 -64.2769 -31.1056 -31.1054 -31.1038 -31.0860
   -31.0658 -31.0656 -31.0590 -31.0529 -31.0529 -31.0525 -31.0425 -31.0409
    -8.3914  -7.8114  -7.6819  -7.6817   4.1927   4.1927   4.2638   5.0713
     6.1542   6.1544   6.5497   7.0981   7.0984   7.1581   7.6325   7.6696

          k = 0.2500 0.2500 0.4167 (  5540 PWs)   bands (ev):

   -64.2813 -64.2792 -64.2776 -64.2769 -31.1072 -31.1070 -31.1020 -31.0928
   -31.0656 -31.0653 -31.0523 -31.0521 -31.0521 -31.0501 -31.0448 -31.0431
    -8.2462  -7.9452  -7.6682  -7.6679   4.1234   4.1234   4.3361   4.7526
     6.1564   6.1566   6.9095   7.1019   7.1022   7.2670   7.4946   7.5124

          k = 0.2500 0.2500-0.5000 (  5528 PWs)   bands (ev):

   -64.2805 -64.2800 -64.2776 -64.2769 -31.1077 -31.1076 -31.0984 -31.0983
   -31.0654 -31.0651 -31.0517 -31.0517 -31.0474 -31.0472 -31.0470 -31.0469
    -8.0938  -8.0935  -7.6632  -7.6629   4.0977   4.0977   4.5018   4.5019
     6.1607   6.1609   7.0998   7.1001   7.2328   7.2329   7.3877   7.3879

          k = 0.2500 0.3333 0.3333 (  5529 PWs)   bands (ev):

   -64.2816 -64.2783 -64.2780 -64.2771 -31.1085 -31.1073 -31.1071 -31.0931
   -31.0638 -31.0588 -31.0586 -31.0510 -31.0509 -31.0508 -31.0436 -31.0409
    -8.2775  -7.7738  -7.7735  -7.6815   4.0559   4.1102   4.1103   4.7391
     6.2394   6.5416   6.5419   7.1788   7.1908   7.1910   7.5361   7.6568

          k = 0.2500 0.3333 0.4167 (  5542 PWs)   bands (ev):

   -64.2807 -64.2789 -64.2780 -64.2773 -31.1105 -31.1097 -31.1067 -31.0994
   -31.0620 -31.0593 -31.0530 -31.0497 -31.0496 -31.0481 -31.0460 -31.0422
    -8.1484  -7.8868  -7.7376  -7.6897   3.9672   3.9967   4.1281   4.4553
     6.3399   6.5058   6.8922   7.2125   7.2186   7.3048   7.3879   7.5702

          k = 0.2500 0.3333-0.5000 (  5536 PWs)   bands (ev):

   -64.2800 -64.2796 -64.2780 -64.2773 -31.1109 -31.1107 -31.1041 -31.1039
   -31.0606 -31.0604 -31.0492 -31.0491 -31.0489 -31.0488 -31.0450 -31.0448
    -8.0148  -8.0146  -7.7086  -7.7083   3.9459   3.9460   4.2460   4.2461
     6.4351   6.4353   7.1793   7.1794   7.2249   7.2252   7.4367   7.4368

          k = 0.2500 0.4167 0.4167 (  5560 PWs)   bands (ev):

   -64.2801 -64.2788 -64.2785 -64.2776 -31.1123 -31.1104 -31.1102 -31.1050
   -31.0592 -31.0547 -31.0547 -31.0482 -31.0477 -31.0469 -31.0467 -31.0425
    -8.0394  -7.8261  -7.8258  -7.7234   3.8829   3.9692   3.9693   4.2099
     6.5145   6.8052   6.8055   7.2382   7.3043   7.3406   7.3408   7.5528

          k = 0.2500 0.4167-0.5000 (  5552 PWs)   bands (ev):

   -64.2795 -64.2792 -64.2785 -64.2777 -31.1122 -31.1121 -31.1087 -31.1085
   -31.0569 -31.0567 -31.0512 -31.0510 -31.0466 -31.0465 -31.0442 -31.0440
    -7.9290  -7.9287  -7.7698  -7.7696   3.8836   3.8836   4.0426   4.0427
     6.6735   6.6736   7.0475   7.0475   7.3450   7.3452   7.4654   7.4655

          k = 0.2500-0.5000-0.5000 (  5552 PWs)   bands (ev):

   -64.2790 -64.2790 -64.2790 -64.2779 -31.1116 -31.1113 -31.1113 -31.1113
   -31.0540 -31.0537 -31.0537 -31.0535 -31.0449 -31.0447 -31.0445 -31.0445
    -7.8452  -7.8446  -7.8446  -7.8446   3.9171   3.9171   3.9171   3.9171
     6.8770   6.8772   6.8774   6.8774   7.4324   7.4324   7.4325   7.4327

          k = 0.3333 0.3333 0.3333 (  5532 PWs)   bands (ev):

   -64.2810 -64.2783 -64.2783 -64.2774 -31.1114 -31.1112 -31.1112 -31.1000
   -31.0564 -31.0564 -31.0561 -31.0495 -31.0495 -31.0495 -31.0424 -31.0424
    -8.1773  -7.7540  -7.7536  -7.7536   3.9289   3.9289   3.9289   4.4236
     6.6519   6.6522   6.6522   7.2450   7.2450   7.2453   7.5829   7.5829

          k = 0.3333 0.3333 0.4167 (  5555 PWs)   bands (ev):

   -64.2803 -64.2788 -64.2783 -64.2775 -31.1140 -31.1138 -31.1118 -31.1060
   -31.0555 -31.0553 -31.0503 -31.0483 -31.0483 -31.0479 -31.0442 -31.0432
    -8.0654  -7.8453  -7.7392  -7.7390   3.8069   3.8069   3.9052   4.1639
     6.7253   6.7255   7.0190   7.2801   7.2804   7.3237   7.4985   7.5078

          k = 0.3333 0.3333-0.5000 (  5566 PWs)   bands (ev):

   -64.2797 -64.2794 -64.2783 -64.2776 -31.1152 -31.1150 -31.1099 -31.1098
   -31.0553 -31.0551 -31.0479 -31.0479 -31.0461 -31.0459 -31.0459 -31.0458
    -7.9517  -7.9515  -7.7339  -7.7336   3.7641   3.7641   3.9859   3.9860
     6.7511   6.7513   7.2918   7.2921   7.3131   7.3133   7.4099   7.4101

          k = 0.3333 0.4167 0.4167 (  5545 PWs)   bands (ev):

   -64.2798 -64.2788 -64.2786 -64.2777 -31.1164 -31.1153 -31.1151 -31.1110
   -31.0528 -31.0502 -31.0502 -31.0468 -31.0466 -31.0464 -31.0453 -31.0432
    -7.9747  -7.8052  -7.8050  -7.7499   3.6941   3.7464   3.7464   3.9342
     6.8902   7.0479   7.0481   7.3397   7.3565   7.3567   7.4132   7.5155

          k = 0.3333 0.4167-0.5000 (  5562 PWs)   bands (ev):

   -64.2794 -64.2791 -64.2786 -64.2778 -31.1170 -31.1169 -31.1144 -31.1143
   -31.0514 -31.0511 -31.0473 -31.0471 -31.0461 -31.0461 -31.0446 -31.0444
    -7.8855  -7.8853  -7.7722  -7.7720   3.6730   3.6731   3.7903   3.7903
     6.9983   6.9984   7.2766   7.2767   7.3686   7.3688   7.4453   7.4453

          k = 0.3333-0.5000-0.5000 (  5548 PWs)   bands (ev):

   -64.2790 -64.2790 -64.2790 -64.2779 -31.1169 -31.1166 -31.1166 -31.1166
   -31.0490 -31.0488 -31.0488 -31.0486 -31.0449 -31.0447 -31.0445 -31.0445
    -7.8240  -7.8235  -7.8235  -7.8235   3.6821   3.6822   3.6822   3.6822
     7.1679   7.1681   7.1682   7.1682   7.4325   7.4325   7.4326   7.4328

          k = 0.4167 0.4167 0.4167 (  5547 PWs)   bands (ev):

   -64.2795 -64.2788 -64.2788 -64.2779 -31.1186 -31.1184 -31.1184 -31.1159
   -31.0479 -31.0479 -31.0477 -31.0460 -31.0459 -31.0459 -31.0441 -31.0441
    -7.9067  -7.7900  -7.7896  -7.7896   3.6012   3.6012   3.6012   3.7276
     7.1955   7.1958   7.1958   7.3812   7.3812   7.3816   7.4723   7.4723

          k = 0.4167 0.4167-0.5000 (  5534 PWs)   bands (ev):

   -64.2792 -64.2790 -64.2788 -64.2779 -31.1197 -31.1195 -31.1183 -31.1182
   -31.0474 -31.0471 -31.0455 -31.0454 -31.0451 -31.0449 -31.0448 -31.0448
    -7.8432  -7.8430  -7.7843  -7.7840   3.5509   3.5509   3.6128   3.6129
     7.2386   7.2388   7.3976   7.3978   7.3988   7.3991   7.4265   7.4267

          k = 0.4167-0.5000-0.5000 (  5544 PWs)   bands (ev):

   -64.2790 -64.2790 -64.2790 -64.2779 -31.1203 -31.1200 -31.1200 -31.1200
   -31.0459 -31.0457 -31.0457 -31.0455 -31.0450 -31.0448 -31.0446 -31.0446
    -7.8084  -7.8079  -7.8079  -7.8079   3.5301   3.5302   3.5302   3.5302
     7.3635   7.3637   7.3638   7.3638   7.4325   7.4325   7.4326   7.4328

          k =-0.5000-0.5000-0.5000 (  5520 PWs)   bands (ev):

   -64.2790 -64.2790 -64.2790 -64.2779 -31.1212 -31.1209 -31.1209 -31.1209
   -31.0449 -31.0449 -31.0447 -31.0447 -31.0447 -31.0445 -31.0445 -31.0445
    -7.8027  -7.8022  -7.8022  -7.8022   3.4777   3.4778   3.4778   3.4778
     7.4324   7.4324   7.4324   7.4326   7.4326   7.4329   7.4329   7.4329

     highest occupied level (ev):     8.0717

!    total energy              =    -608.40429022 Ry
     Harris-Foulkes estimate   =    -608.40429022 Ry
     estimated scf accuracy    <          6.7E-09 Ry

     The total energy is the sum of the following terms:

     one-electron contribution =    -297.12684517 Ry
     hartree contribution      =     165.96432550 Ry
     xc contribution           =     -97.98929486 Ry
     ewald contribution        =    -379.25247568 Ry

     convergence has been achieved in   8 iterations

     Forces acting on atoms (cartesian axes, Ry/au):

     atom    1 type  1   force =     0.00000000    0.00000000    0.00000000
     atom    2 type  1   force =     0.00000000    0.00000000    0.00000000
     atom    3 type  1   force =     0.00000000    0.00000000   -0.00000000
     atom    4 type  1   force =     0.00000000    0.00000000    0.00000000
     atom    5 type  2   force =     0.00000000    0.00000000    0.00000000
     atom    6 type  2   force =     0.00000000    0.00000000    0.00000000
     atom    7 type  2   force =     0.00000000    0.00000000   -0.00000000
     atom    8 type  2   force =     0.00000000    0.00000000    0.00000000

     Total force =     0.000000     Total SCF correction =     0.000000

     Writing output data file MgO_121212.save/
 
     init_run     :      1.22s CPU      1.29s WALL (       1 calls)
     electrons    :     26.05s CPU     26.86s WALL (       1 calls)
     forces       :      0.28s CPU      0.28s WALL (       1 calls)

     Called by init_run:
     wfcinit      :      1.15s CPU      1.20s WALL (       1 calls)
     potinit      :      0.02s CPU      0.04s WALL (       1 calls)
     hinit0       :      0.03s CPU      0.03s WALL (       1 calls)

     Called by electrons:
     c_bands      :     22.97s CPU     23.61s WALL (       8 calls)
     sum_band     :      3.02s CPU      3.14s WALL (       8 calls)
     v_of_rho     :      0.04s CPU      0.04s WALL (       9 calls)
     mix_rho      :      0.01s CPU      0.01s WALL (       8 calls)

     Called by c_bands:
     init_us_2    :      0.30s CPU      0.31s WALL (    1512 calls)
     cegterg      :     21.81s CPU     22.42s WALL (     672 calls)

     Called by sum_band:

     Called by *egterg:
     h_psi        :     16.22s CPU     16.83s WALL (    2127 calls)
     g_psi        :      0.10s CPU      0.10s WALL (    1371 calls)
     cdiaghg      :      4.10s CPU      4.12s WALL (    2043 calls)

     Called by h_psi:
     h_psi:pot    :     16.13s CPU     16.74s WALL (    2127 calls)
     h_psi:calbec :      0.96s CPU      0.99s WALL (    2127 calls)
     vloc_psi     :     14.26s CPU     14.82s WALL (    2127 calls)
     add_vuspsi   :      0.89s CPU      0.91s WALL (    2127 calls)

     General routines
     calbec       :      1.11s CPU      1.14s WALL (    2463 calls)
     fft          :      0.03s CPU      0.03s WALL (     100 calls)
     ffts         :      0.00s CPU      0.00s WALL (       8 calls)
     fftw         :     15.82s CPU     16.44s WALL (  135756 calls)
 
     Parallel routines
     fft_scatt_xy :      1.64s CPU      1.70s WALL (  135864 calls)
     fft_scatt_yz :      7.63s CPU      7.98s WALL (  135864 calls)
 
     PWSCF        :     28.21s CPU     35.13s WALL

 
   This run was terminated on:  18: 2:51   9Sep2020            

=------------------------------------------------------------------------------=
   JOB DONE.
=------------------------------------------------------------------------------=
Starting epilogue... Wed Sep  9 18:02:53 CEST 2020
=== JOB_STATISTICS ===
=== current date     : Wed Sep  9 18:02:53 CEST 2020
= Job-ID             : 1346734.eadm
= Job-Name           : MoS2.phon
= Queue              : devel
= PBS_O_WORKDIR      : /home/hpc/rzku/phyv025h/Exercise_sheet_1/Exercise_1
= Requested resources: ncpus=1,neednodes=2:ppn=40,nodes=2:ppn=40,walltime=01:00:00
= Used resources     : cput=00:50:50,mem=1497884kb,vmem=11042896kb,walltime=00:02:47
= Node list          : e0106,e0105
= AccessKey          : d8062dc7
======================
Power management available, setting all CPUs to ondemand govenor
End of epilogue: Wed Sep  9 18:02:53 CEST 2020
