Starting prologue... Wed Sep 9 17:59:49 CEST 2020
Master node: e0104
Kill all process from other users
Adjust oom killer config
Clearing buffers and caches on the nodes.
Power management available, enabling ondemand governor
End of prologue: Wed Sep  9 17:59:56 CEST 2020
/home/hpc/rzku/phyv025h/Exercise_sheet_1/Exercise_1

     Program PWSCF v.6.4.1 starts on  9Sep2020 at 18: 0: 5 

     This program is part of the open-source Quantum ESPRESSO suite
     for quantum simulation of materials; please cite
         "P. Giannozzi et al., J. Phys.:Condens. Matter 21 395502 (2009);
         "P. Giannozzi et al., J. Phys.:Condens. Matter 29 465901 (2017);
          URL http://www.quantum-espresso.org", 
     in publications or presentations arising from this work. More details at
     http://www.quantum-espresso.org/quote

     Parallel version (MPI & OpenMP), running on      20 processor cores
     Number of MPI processes:                20
     Threads/MPI process:                     1

     MPI processes distributed on     1 nodes
     R & G space division:  proc/nbgrp/npool/nimage =      20
     Reading input from /home/hpc/rzku/phyv025h/Exercise_sheet_1/Exercise_1/1_c/MgO_222_shift.in

     Current dimensions of program PWSCF are:
     Max number of different atomic species (ntypx) = 10
     Max number of k-points (npk) =  40000
     Max angular momentum in pseudopotentials (lmaxx) =  3

     IMPORTANT: XC functional enforced from input :
     Exchange-correlation      = PBE ( 1  4  3  4 0 0)
     Any further DFT definition will be discarded
     Please, verify this is what you really want


     Subspace diagonalization in iterative solution of the eigenvalue problem:
     a serial algorithm will be used

     Found symmetry operation: I + ( -0.5000 -0.5000  0.0000)
     This is a supercell, fractional translations are disabled
     Message from routine setup:
     DEPRECATED: symmetry with ibrav=0, use correct ibrav instead
 
     Parallelization info
     --------------------
     sticks:   dense  smooth     PW     G-vecs:    dense   smooth      PW
     Min          74      74     20                 2192     2192     308
     Max          75      75     21                 2197     2197     313
     Sum        1489    1489    405                43867    43867    6187
 


     bravais-lattice index     =            0
     lattice parameter (alat)  =       7.9557  a.u.
     unit-cell volume          =     503.5503 (a.u.)^3
     number of atoms/cell      =            8
     number of atomic types    =            2
     number of electrons       =        64.00
     number of Kohn-Sham states=           32
     kinetic-energy cutoff     =      75.0000  Ry
     charge density cutoff     =     300.0000  Ry
     convergence threshold     =      1.0E-08
     mixing beta               =       0.7000
     number of iterations used =            8  plain     mixing
     Exchange-correlation      = PBE ( 1  4  3  4 0 0)

     celldm(1)=   7.955747  celldm(2)=   0.000000  celldm(3)=   0.000000
     celldm(4)=   0.000000  celldm(5)=   0.000000  celldm(6)=   0.000000

     crystal axes: (cart. coord. in units of alat)
               a(1) = (   1.000000   0.000000   0.000000 )  
               a(2) = (   0.000000   1.000000   0.000000 )  
               a(3) = (   0.000000   0.000000   1.000000 )  

     reciprocal axes: (cart. coord. in units 2 pi/alat)
               b(1) = (  1.000000  0.000000  0.000000 )  
               b(2) = (  0.000000  1.000000  0.000000 )  
               b(3) = (  0.000000  0.000000  1.000000 )  


     PseudoPot. # 1 for Mg read from file:
     ./Mg.nc.UPF
     MD5 check sum: 4c04d8c6e0476e83eaecaf72fa8acc4d
     Pseudo is Norm-conserving, Zval = 10.0
     Generated using ONCVPSP code by D. R. Hamann
     Using radial grid of 1510 points,  4 beta functions with: 
                l(1) =   0
                l(2) =   0
                l(3) =   1
                l(4) =   1

     PseudoPot. # 2 for O  read from file:
     ./O.nc.UPF
     MD5 check sum: 3e3f909f7470e8921608ab6b1f57bbae
     Pseudo is Norm-conserving + core correction, Zval =  6.0
     Generated using ONCVPSP code by D. R. Hamann
     Using radial grid of  936 points,  5 beta functions with: 
                l(1) =   0
                l(2) =   0
                l(3) =   1
                l(4) =   1
                l(5) =   2

     atomic species   valence    mass     pseudopotential
        Mg            10.00    24.30500     Mg( 1.00)
        O              6.00    15.99900     O ( 1.00)

     48 Sym. Ops., with inversion, found



   Cartesian axes

     site n.     atom                  positions (alat units)
         1           Mg  tau(   1) = (   0.0000000   0.0000000   0.0000000  )
         2           Mg  tau(   2) = (   0.5000000   0.5000000   0.0000000  )
         3           Mg  tau(   3) = (   0.5000000   0.0000000   0.5000000  )
         4           Mg  tau(   4) = (   0.0000000   0.5000000   0.5000000  )
         5           O   tau(   5) = (   0.5000000   0.0000000   0.0000000  )
         6           O   tau(   6) = (   0.0000000   0.5000000   0.0000000  )
         7           O   tau(   7) = (   0.0000000   0.0000000   0.5000000  )
         8           O   tau(   8) = (   0.5000000   0.5000000   0.5000000  )

     number of k points=     1
                       cart. coord. in units 2pi/alat
        k(    1) = (   0.2500000   0.2500000   0.2500000), wk =   2.0000000

     Dense  grid:    43867 G-vectors     FFT dimensions: (  45,  45,  45)

     Estimated max dynamical RAM per process >       6.27 MB

     Estimated total dynamical RAM >     125.37 MB

     Check: negative core charge=   -0.000003

     Initial potential from superposition of free atoms

     starting charge   63.99678, renormalised to   64.00000
     Starting wfcs are   36 randomized atomic wfcs

     total cpu time spent up to now is        0.7 secs

     Self-consistent Calculation

     iteration #  1     ecut=    75.00 Ry     beta= 0.70
     Davidson diagonalization with overlap
     ethr =  1.00E-02,  avg # of iterations =  2.0

     total cpu time spent up to now is        0.8 secs

     total energy              =    -607.74746155 Ry
     Harris-Foulkes estimate   =    -608.85785579 Ry
     estimated scf accuracy    <       1.54466010 Ry

     iteration #  2     ecut=    75.00 Ry     beta= 0.70
     Davidson diagonalization with overlap
     ethr =  2.41E-03,  avg # of iterations =  3.0

     total cpu time spent up to now is        0.8 secs

     total energy              =    -608.14114920 Ry
     Harris-Foulkes estimate   =    -608.78295216 Ry
     estimated scf accuracy    <       1.31301370 Ry

     iteration #  3     ecut=    75.00 Ry     beta= 0.70
     Davidson diagonalization with overlap
     ethr =  2.05E-03,  avg # of iterations =  2.0

     total cpu time spent up to now is        0.9 secs

     total energy              =    -608.40106339 Ry
     Harris-Foulkes estimate   =    -608.40158177 Ry
     estimated scf accuracy    <       0.00616008 Ry

     iteration #  4     ecut=    75.00 Ry     beta= 0.70
     Davidson diagonalization with overlap
     ethr =  9.63E-06,  avg # of iterations =  2.0

     total cpu time spent up to now is        0.9 secs

     total energy              =    -608.40236672 Ry
     Harris-Foulkes estimate   =    -608.40240119 Ry
     estimated scf accuracy    <       0.00009178 Ry

     iteration #  5     ecut=    75.00 Ry     beta= 0.70
     Davidson diagonalization with overlap
     ethr =  1.43E-07,  avg # of iterations =  1.0

     total cpu time spent up to now is        1.0 secs

     total energy              =    -608.40237249 Ry
     Harris-Foulkes estimate   =    -608.40237149 Ry
     estimated scf accuracy    <       0.00001110 Ry

     iteration #  6     ecut=    75.00 Ry     beta= 0.70
     Davidson diagonalization with overlap
     ethr =  1.73E-08,  avg # of iterations =  2.0

     total cpu time spent up to now is        1.0 secs

     total energy              =    -608.40237439 Ry
     Harris-Foulkes estimate   =    -608.40237488 Ry
     estimated scf accuracy    <       0.00000131 Ry

     iteration #  7     ecut=    75.00 Ry     beta= 0.70
     Davidson diagonalization with overlap
     ethr =  2.04E-09,  avg # of iterations =  2.0

     total cpu time spent up to now is        1.1 secs

     total energy              =    -608.40237433 Ry
     Harris-Foulkes estimate   =    -608.40237449 Ry
     estimated scf accuracy    <       0.00000037 Ry

     iteration #  8     ecut=    75.00 Ry     beta= 0.70
     Davidson diagonalization with overlap
     ethr =  5.80E-10,  avg # of iterations =  2.0

     total cpu time spent up to now is        1.1 secs

     total energy              =    -608.40237436 Ry
     Harris-Foulkes estimate   =    -608.40237438 Ry
     estimated scf accuracy    <       0.00000004 Ry

     iteration #  9     ecut=    75.00 Ry     beta= 0.70
     Davidson diagonalization with overlap
     ethr =  6.35E-11,  avg # of iterations =  2.0

     total cpu time spent up to now is        1.2 secs

     End of self-consistent calculation

          k = 0.2500 0.2500 0.2500 (  5527 PWs)   bands (ev):

   -64.2892 -64.2837 -64.2837 -64.2829 -31.1092 -31.1090 -31.1090 -31.0844
   -31.0718 -31.0718 -31.0715 -31.0602 -31.0602 -31.0602 -31.0461 -31.0461
    -8.5077  -7.6893  -7.6891  -7.6891   4.2918   4.2918   4.2918   5.4400
     6.1866   6.1868   6.1868   7.0773   7.0773   7.0776   7.7498   7.7498

     highest occupied level (ev):     7.7498

!    total energy              =    -608.40237436 Ry
     Harris-Foulkes estimate   =    -608.40237436 Ry
     estimated scf accuracy    <          1.5E-09 Ry

     The total energy is the sum of the following terms:

     one-electron contribution =    -297.13053163 Ry
     hartree contribution      =     165.97431067 Ry
     xc contribution           =     -97.99367771 Ry
     ewald contribution        =    -379.25247568 Ry

     convergence has been achieved in   9 iterations

     Forces acting on atoms (cartesian axes, Ry/au):

     atom    1 type  1   force =     0.00000000    0.00000000   -0.00000000
     atom    2 type  1   force =     0.00000000    0.00000000    0.00000000
     atom    3 type  1   force =     0.00000000   -0.00000000    0.00000000
     atom    4 type  1   force =     0.00000000    0.00000000    0.00000000
     atom    5 type  2   force =     0.00000000    0.00000000    0.00000000
     atom    6 type  2   force =     0.00000000    0.00000000   -0.00000000
     atom    7 type  2   force =     0.00000000    0.00000000    0.00000000
     atom    8 type  2   force =     0.00000000    0.00000000    0.00000000

     Total force =     0.000000     Total SCF correction =     0.000000

     Writing output data file MgO_222_shift.save/
 
     init_run     :      0.07s CPU      0.16s WALL (       1 calls)
     electrons    :      0.45s CPU      0.59s WALL (       1 calls)
     forces       :      0.02s CPU      0.02s WALL (       1 calls)

     Called by init_run:
     wfcinit      :      0.02s CPU      0.02s WALL (       1 calls)
     potinit      :      0.01s CPU      0.03s WALL (       1 calls)
     hinit0       :      0.02s CPU      0.09s WALL (       1 calls)

     Called by electrons:
     c_bands      :      0.33s CPU      0.36s WALL (       9 calls)
     sum_band     :      0.06s CPU      0.06s WALL (       9 calls)
     v_of_rho     :      0.05s CPU      0.05s WALL (      10 calls)
     mix_rho      :      0.01s CPU      0.01s WALL (       9 calls)

     Called by c_bands:
     init_us_2    :      0.01s CPU      0.01s WALL (      19 calls)
     cegterg      :      0.31s CPU      0.34s WALL (       9 calls)

     Called by sum_band:

     Called by *egterg:
     h_psi        :      0.23s CPU      0.26s WALL (      28 calls)
     g_psi        :      0.00s CPU      0.00s WALL (      18 calls)
     cdiaghg      :      0.06s CPU      0.06s WALL (      27 calls)

     Called by h_psi:
     h_psi:pot    :      0.23s CPU      0.25s WALL (      28 calls)
     h_psi:calbec :      0.02s CPU      0.02s WALL (      28 calls)
     vloc_psi     :      0.20s CPU      0.22s WALL (      28 calls)
     add_vuspsi   :      0.01s CPU      0.01s WALL (      28 calls)

     General routines
     calbec       :      0.02s CPU      0.02s WALL (      32 calls)
     fft          :      0.03s CPU      0.09s WALL (     110 calls)
     ffts         :      0.00s CPU      0.00s WALL (       9 calls)
     fftw         :      0.23s CPU      0.25s WALL (    1834 calls)
 
     Parallel routines
     fft_scatt_xy :      0.03s CPU      0.03s WALL (    1953 calls)
     fft_scatt_yz :      0.13s CPU      0.14s WALL (    1953 calls)
 
     PWSCF        :      0.71s CPU      1.64s WALL

 
   This run was terminated on:  18: 0: 7   9Sep2020            

=------------------------------------------------------------------------------=
   JOB DONE.
=------------------------------------------------------------------------------=

     Program PWSCF v.6.4.1 starts on  9Sep2020 at 18: 0: 8 

     This program is part of the open-source Quantum ESPRESSO suite
     for quantum simulation of materials; please cite
         "P. Giannozzi et al., J. Phys.:Condens. Matter 21 395502 (2009);
         "P. Giannozzi et al., J. Phys.:Condens. Matter 29 465901 (2017);
          URL http://www.quantum-espresso.org", 
     in publications or presentations arising from this work. More details at
     http://www.quantum-espresso.org/quote

     Parallel version (MPI & OpenMP), running on      20 processor cores
     Number of MPI processes:                20
     Threads/MPI process:                     1

     MPI processes distributed on     1 nodes
     R & G space division:  proc/nbgrp/npool/nimage =      20
     Reading input from /home/hpc/rzku/phyv025h/Exercise_sheet_1/Exercise_1/1_c/MgO_444_shift.in

     Current dimensions of program PWSCF are:
     Max number of different atomic species (ntypx) = 10
     Max number of k-points (npk) =  40000
     Max angular momentum in pseudopotentials (lmaxx) =  3

     IMPORTANT: XC functional enforced from input :
     Exchange-correlation      = PBE ( 1  4  3  4 0 0)
     Any further DFT definition will be discarded
     Please, verify this is what you really want


     Subspace diagonalization in iterative solution of the eigenvalue problem:
     a serial algorithm will be used

     Found symmetry operation: I + ( -0.5000 -0.5000  0.0000)
     This is a supercell, fractional translations are disabled
     Message from routine setup:
     DEPRECATED: symmetry with ibrav=0, use correct ibrav instead
 
     Parallelization info
     --------------------
     sticks:   dense  smooth     PW     G-vecs:    dense   smooth      PW
     Min          74      74     21                 2192     2192     329
     Max          75      75     22                 2197     2197     334
     Sum        1489    1489    421                43867    43867    6619
 


     bravais-lattice index     =            0
     lattice parameter (alat)  =       7.9557  a.u.
     unit-cell volume          =     503.5503 (a.u.)^3
     number of atoms/cell      =            8
     number of atomic types    =            2
     number of electrons       =        64.00
     number of Kohn-Sham states=           32
     kinetic-energy cutoff     =      75.0000  Ry
     charge density cutoff     =     300.0000  Ry
     convergence threshold     =      1.0E-08
     mixing beta               =       0.7000
     number of iterations used =            8  plain     mixing
     Exchange-correlation      = PBE ( 1  4  3  4 0 0)

     celldm(1)=   7.955747  celldm(2)=   0.000000  celldm(3)=   0.000000
     celldm(4)=   0.000000  celldm(5)=   0.000000  celldm(6)=   0.000000

     crystal axes: (cart. coord. in units of alat)
               a(1) = (   1.000000   0.000000   0.000000 )  
               a(2) = (   0.000000   1.000000   0.000000 )  
               a(3) = (   0.000000   0.000000   1.000000 )  

     reciprocal axes: (cart. coord. in units 2 pi/alat)
               b(1) = (  1.000000  0.000000  0.000000 )  
               b(2) = (  0.000000  1.000000  0.000000 )  
               b(3) = (  0.000000  0.000000  1.000000 )  


     PseudoPot. # 1 for Mg read from file:
     ./Mg.nc.UPF
     MD5 check sum: 4c04d8c6e0476e83eaecaf72fa8acc4d
     Pseudo is Norm-conserving, Zval = 10.0
     Generated using ONCVPSP code by D. R. Hamann
     Using radial grid of 1510 points,  4 beta functions with: 
                l(1) =   0
                l(2) =   0
                l(3) =   1
                l(4) =   1

     PseudoPot. # 2 for O  read from file:
     ./O.nc.UPF
     MD5 check sum: 3e3f909f7470e8921608ab6b1f57bbae
     Pseudo is Norm-conserving + core correction, Zval =  6.0
     Generated using ONCVPSP code by D. R. Hamann
     Using radial grid of  936 points,  5 beta functions with: 
                l(1) =   0
                l(2) =   0
                l(3) =   1
                l(4) =   1
                l(5) =   2

     atomic species   valence    mass     pseudopotential
        Mg            10.00    24.30500     Mg( 1.00)
        O              6.00    15.99900     O ( 1.00)

     48 Sym. Ops., with inversion, found



   Cartesian axes

     site n.     atom                  positions (alat units)
         1           Mg  tau(   1) = (   0.0000000   0.0000000   0.0000000  )
         2           Mg  tau(   2) = (   0.5000000   0.5000000   0.0000000  )
         3           Mg  tau(   3) = (   0.5000000   0.0000000   0.5000000  )
         4           Mg  tau(   4) = (   0.0000000   0.5000000   0.5000000  )
         5           O   tau(   5) = (   0.5000000   0.0000000   0.0000000  )
         6           O   tau(   6) = (   0.0000000   0.5000000   0.0000000  )
         7           O   tau(   7) = (   0.0000000   0.0000000   0.5000000  )
         8           O   tau(   8) = (   0.5000000   0.5000000   0.5000000  )

     number of k points=     4
                       cart. coord. in units 2pi/alat
        k(    1) = (   0.1250000   0.1250000   0.1250000), wk =   0.2500000
        k(    2) = (   0.1250000   0.1250000   0.3750000), wk =   0.7500000
        k(    3) = (   0.1250000   0.3750000   0.3750000), wk =   0.7500000
        k(    4) = (   0.3750000   0.3750000   0.3750000), wk =   0.2500000

     Dense  grid:    43867 G-vectors     FFT dimensions: (  45,  45,  45)

     Estimated max dynamical RAM per process >       6.81 MB

     Estimated total dynamical RAM >     136.16 MB

     Check: negative core charge=   -0.000003

     Initial potential from superposition of free atoms

     starting charge   63.99678, renormalised to   64.00000
     Starting wfcs are   36 randomized atomic wfcs

     total cpu time spent up to now is        0.3 secs

     Self-consistent Calculation

     iteration #  1     ecut=    75.00 Ry     beta= 0.70
     Davidson diagonalization with overlap
     ethr =  1.00E-02,  avg # of iterations =  2.0

     total cpu time spent up to now is        0.5 secs

     total energy              =    -607.74400158 Ry
     Harris-Foulkes estimate   =    -608.85683484 Ry
     estimated scf accuracy    <       1.54768163 Ry

     iteration #  2     ecut=    75.00 Ry     beta= 0.70
     Davidson diagonalization with overlap
     ethr =  2.42E-03,  avg # of iterations =  3.0

     total cpu time spent up to now is        0.7 secs

     total energy              =    -608.13589870 Ry
     Harris-Foulkes estimate   =    -608.79242605 Ry
     estimated scf accuracy    <       1.34912298 Ry

     iteration #  3     ecut=    75.00 Ry     beta= 0.70
     Davidson diagonalization with overlap
     ethr =  2.11E-03,  avg # of iterations =  2.0

     total cpu time spent up to now is        0.9 secs

     total energy              =    -608.40295452 Ry
     Harris-Foulkes estimate   =    -608.40352231 Ry
     estimated scf accuracy    <       0.00634986 Ry

     iteration #  4     ecut=    75.00 Ry     beta= 0.70
     Davidson diagonalization with overlap
     ethr =  9.92E-06,  avg # of iterations =  2.0

     total cpu time spent up to now is        1.1 secs

     total energy              =    -608.40431407 Ry
     Harris-Foulkes estimate   =    -608.40435563 Ry
     estimated scf accuracy    <       0.00010367 Ry

     iteration #  5     ecut=    75.00 Ry     beta= 0.70
     Davidson diagonalization with overlap
     ethr =  1.62E-07,  avg # of iterations =  1.5

     total cpu time spent up to now is        1.2 secs

     total energy              =    -608.40432022 Ry
     Harris-Foulkes estimate   =    -608.40431950 Ry
     estimated scf accuracy    <       0.00001127 Ry

     iteration #  6     ecut=    75.00 Ry     beta= 0.70
     Davidson diagonalization with overlap
     ethr =  1.76E-08,  avg # of iterations =  2.0

     total cpu time spent up to now is        1.4 secs

     total energy              =    -608.40432169 Ry
     Harris-Foulkes estimate   =    -608.40432248 Ry
     estimated scf accuracy    <       0.00000187 Ry

     iteration #  7     ecut=    75.00 Ry     beta= 0.70
     Davidson diagonalization with overlap
     ethr =  2.92E-09,  avg # of iterations =  2.5

     total cpu time spent up to now is        1.6 secs

     total energy              =    -608.40432185 Ry
     Harris-Foulkes estimate   =    -608.40432199 Ry
     estimated scf accuracy    <       0.00000037 Ry

     iteration #  8     ecut=    75.00 Ry     beta= 0.70
     Davidson diagonalization with overlap
     ethr =  5.76E-10,  avg # of iterations =  2.0

     total cpu time spent up to now is        1.7 secs

     total energy              =    -608.40432184 Ry
     Harris-Foulkes estimate   =    -608.40432188 Ry
     estimated scf accuracy    <       0.00000007 Ry

     iteration #  9     ecut=    75.00 Ry     beta= 0.70
     Davidson diagonalization with overlap
     ethr =  1.05E-10,  avg # of iterations =  2.0

     total cpu time spent up to now is        1.9 secs

     End of self-consistent calculation

          k = 0.1250 0.1250 0.1250 (  5497 PWs)   bands (ev):

   -64.2861 -64.2765 -64.2765 -64.2757 -31.1034 -31.1033 -31.1033 -31.0679
   -31.0679 -31.0678 -31.0614 -31.0613 -31.0613 -31.0485 -31.0372 -31.0372
    -8.9550  -7.6165  -7.6163  -7.6163   4.2305   4.2305   4.2305   6.3659
     6.3662   6.3662   6.8304   6.8304   6.8307   7.1276   7.9713   7.9713

          k = 0.1250 0.1250 0.3750 (  5537 PWs)   bands (ev):

   -64.2832 -64.2791 -64.2765 -64.2759 -31.0969 -31.0967 -31.0919 -31.0777
   -31.0775 -31.0696 -31.0600 -31.0600 -31.0562 -31.0543 -31.0443 -31.0426
    -8.5624  -8.0057  -7.5692  -7.5691   4.5962   4.5962   4.7250   5.6110
     5.6111   5.8261   6.7098   6.7101   6.8919   7.1294   7.5944   7.5985

          k = 0.1250 0.3750 0.3750 (  5513 PWs)   bands (ev):

   -64.2812 -64.2785 -64.2781 -64.2769 -31.1021 -31.1007 -31.1005 -31.0891
   -31.0734 -31.0631 -31.0631 -31.0511 -31.0503 -31.0492 -31.0490 -31.0404
    -8.2476  -7.8320  -7.8319  -7.6485   4.3455   4.3902   4.3903   4.9149
     5.7196   6.3656   6.3659   7.0956   7.1874   7.2183   7.2184   7.6667

          k = 0.3750 0.3750 0.3750 (  5559 PWs)   bands (ev):

   -64.2800 -64.2785 -64.2785 -64.2776 -31.1154 -31.1152 -31.1152 -31.1091
   -31.0517 -31.0517 -31.0514 -31.0475 -31.0475 -31.0475 -31.0433 -31.0433
    -8.0267  -7.7746  -7.7744  -7.7744   3.7460   3.7461   3.7461   4.0269
     6.9415   6.9417   6.9417   7.3213   7.3213   7.3216   7.5199   7.5199

     highest occupied level (ev):     7.9713

!    total energy              =    -608.40432186 Ry
     Harris-Foulkes estimate   =    -608.40432186 Ry
     estimated scf accuracy    <          2.6E-09 Ry

     The total energy is the sum of the following terms:

     one-electron contribution =    -297.12685634 Ry
     hartree contribution      =     165.96425790 Ry
     xc contribution           =     -97.98924773 Ry
     ewald contribution        =    -379.25247568 Ry

     convergence has been achieved in   9 iterations

     Forces acting on atoms (cartesian axes, Ry/au):

     atom    1 type  1   force =     0.00000000    0.00000000    0.00000000
     atom    2 type  1   force =     0.00000000    0.00000000    0.00000000
     atom    3 type  1   force =     0.00000000    0.00000000    0.00000000
     atom    4 type  1   force =     0.00000000   -0.00000000    0.00000000
     atom    5 type  2   force =     0.00000000    0.00000000    0.00000000
     atom    6 type  2   force =     0.00000000    0.00000000    0.00000000
     atom    7 type  2   force =     0.00000000    0.00000000   -0.00000000
     atom    8 type  2   force =     0.00000000    0.00000000    0.00000000

     Total force =     0.000000     Total SCF correction =     0.000000

     Writing output data file MgO_444_shift.save/
 
     init_run     :      0.12s CPU      0.15s WALL (       1 calls)
     electrons    :      1.51s CPU      1.63s WALL (       1 calls)
     forces       :      0.03s CPU      0.03s WALL (       1 calls)

     Called by init_run:
     wfcinit      :      0.07s CPU      0.08s WALL (       1 calls)
     potinit      :      0.01s CPU      0.03s WALL (       1 calls)
     hinit0       :      0.03s CPU      0.03s WALL (       1 calls)

     Called by electrons:
     c_bands      :      1.28s CPU      1.32s WALL (       9 calls)
     sum_band     :      0.18s CPU      0.18s WALL (       9 calls)
     v_of_rho     :      0.05s CPU      0.05s WALL (      10 calls)
     mix_rho      :      0.01s CPU      0.01s WALL (       9 calls)

     Called by c_bands:
     init_us_2    :      0.02s CPU      0.02s WALL (      80 calls)
     cegterg      :      1.22s CPU      1.26s WALL (      36 calls)

     Called by sum_band:

     Called by *egterg:
     h_psi        :      0.90s CPU      0.94s WALL (     116 calls)
     g_psi        :      0.01s CPU      0.01s WALL (      76 calls)
     cdiaghg      :      0.23s CPU      0.24s WALL (     112 calls)

     Called by h_psi:
     h_psi:pot    :      0.90s CPU      0.94s WALL (     116 calls)
     h_psi:calbec :      0.05s CPU      0.06s WALL (     116 calls)
     vloc_psi     :      0.79s CPU      0.83s WALL (     116 calls)
     add_vuspsi   :      0.05s CPU      0.05s WALL (     116 calls)

     General routines
     calbec       :      0.06s CPU      0.07s WALL (     132 calls)
     fft          :      0.03s CPU      0.03s WALL (     110 calls)
     ffts         :      0.00s CPU      0.00s WALL (       9 calls)
     fftw         :      0.88s CPU      0.92s WALL (    7220 calls)
 
     Parallel routines
     fft_scatt_xy :      0.09s CPU      0.10s WALL (    7339 calls)
     fft_scatt_yz :      0.45s CPU      0.47s WALL (    7339 calls)
 
     PWSCF        :      1.90s CPU      2.71s WALL

 
   This run was terminated on:  18: 0:11   9Sep2020            

=------------------------------------------------------------------------------=
   JOB DONE.
=------------------------------------------------------------------------------=

     Program PWSCF v.6.4.1 starts on  9Sep2020 at 18: 0:11 

     This program is part of the open-source Quantum ESPRESSO suite
     for quantum simulation of materials; please cite
         "P. Giannozzi et al., J. Phys.:Condens. Matter 21 395502 (2009);
         "P. Giannozzi et al., J. Phys.:Condens. Matter 29 465901 (2017);
          URL http://www.quantum-espresso.org", 
     in publications or presentations arising from this work. More details at
     http://www.quantum-espresso.org/quote

     Parallel version (MPI & OpenMP), running on      20 processor cores
     Number of MPI processes:                20
     Threads/MPI process:                     1

     MPI processes distributed on     1 nodes
     R & G space division:  proc/nbgrp/npool/nimage =      20
     Reading input from /home/hpc/rzku/phyv025h/Exercise_sheet_1/Exercise_1/1_c/MgO_666_shift.in

     Current dimensions of program PWSCF are:
     Max number of different atomic species (ntypx) = 10
     Max number of k-points (npk) =  40000
     Max angular momentum in pseudopotentials (lmaxx) =  3

     IMPORTANT: XC functional enforced from input :
     Exchange-correlation      = PBE ( 1  4  3  4 0 0)
     Any further DFT definition will be discarded
     Please, verify this is what you really want


     Subspace diagonalization in iterative solution of the eigenvalue problem:
     a serial algorithm will be used

     Found symmetry operation: I + ( -0.5000 -0.5000  0.0000)
     This is a supercell, fractional translations are disabled
     Message from routine setup:
     DEPRECATED: symmetry with ibrav=0, use correct ibrav instead
 
     Parallelization info
     --------------------
     sticks:   dense  smooth     PW     G-vecs:    dense   smooth      PW
     Min          74      74     21                 2192     2192     333
     Max          75      75     23                 2197     2197     336
     Sum        1489    1489    429                43867    43867    6667
 


     bravais-lattice index     =            0
     lattice parameter (alat)  =       7.9557  a.u.
     unit-cell volume          =     503.5503 (a.u.)^3
     number of atoms/cell      =            8
     number of atomic types    =            2
     number of electrons       =        64.00
     number of Kohn-Sham states=           32
     kinetic-energy cutoff     =      75.0000  Ry
     charge density cutoff     =     300.0000  Ry
     convergence threshold     =      1.0E-08
     mixing beta               =       0.7000
     number of iterations used =            8  plain     mixing
     Exchange-correlation      = PBE ( 1  4  3  4 0 0)

     celldm(1)=   7.955747  celldm(2)=   0.000000  celldm(3)=   0.000000
     celldm(4)=   0.000000  celldm(5)=   0.000000  celldm(6)=   0.000000

     crystal axes: (cart. coord. in units of alat)
               a(1) = (   1.000000   0.000000   0.000000 )  
               a(2) = (   0.000000   1.000000   0.000000 )  
               a(3) = (   0.000000   0.000000   1.000000 )  

     reciprocal axes: (cart. coord. in units 2 pi/alat)
               b(1) = (  1.000000  0.000000  0.000000 )  
               b(2) = (  0.000000  1.000000  0.000000 )  
               b(3) = (  0.000000  0.000000  1.000000 )  


     PseudoPot. # 1 for Mg read from file:
     ./Mg.nc.UPF
     MD5 check sum: 4c04d8c6e0476e83eaecaf72fa8acc4d
     Pseudo is Norm-conserving, Zval = 10.0
     Generated using ONCVPSP code by D. R. Hamann
     Using radial grid of 1510 points,  4 beta functions with: 
                l(1) =   0
                l(2) =   0
                l(3) =   1
                l(4) =   1

     PseudoPot. # 2 for O  read from file:
     ./O.nc.UPF
     MD5 check sum: 3e3f909f7470e8921608ab6b1f57bbae
     Pseudo is Norm-conserving + core correction, Zval =  6.0
     Generated using ONCVPSP code by D. R. Hamann
     Using radial grid of  936 points,  5 beta functions with: 
                l(1) =   0
                l(2) =   0
                l(3) =   1
                l(4) =   1
                l(5) =   2

     atomic species   valence    mass     pseudopotential
        Mg            10.00    24.30500     Mg( 1.00)
        O              6.00    15.99900     O ( 1.00)

     48 Sym. Ops., with inversion, found



   Cartesian axes

     site n.     atom                  positions (alat units)
         1           Mg  tau(   1) = (   0.0000000   0.0000000   0.0000000  )
         2           Mg  tau(   2) = (   0.5000000   0.5000000   0.0000000  )
         3           Mg  tau(   3) = (   0.5000000   0.0000000   0.5000000  )
         4           Mg  tau(   4) = (   0.0000000   0.5000000   0.5000000  )
         5           O   tau(   5) = (   0.5000000   0.0000000   0.0000000  )
         6           O   tau(   6) = (   0.0000000   0.5000000   0.0000000  )
         7           O   tau(   7) = (   0.0000000   0.0000000   0.5000000  )
         8           O   tau(   8) = (   0.5000000   0.5000000   0.5000000  )

     number of k points=    10
                       cart. coord. in units 2pi/alat
        k(    1) = (   0.0833333   0.0833333   0.0833333), wk =   0.0740741
        k(    2) = (   0.0833333   0.0833333   0.2500000), wk =   0.2222222
        k(    3) = (   0.0833333   0.0833333   0.4166667), wk =   0.2222222
        k(    4) = (   0.0833333   0.2500000   0.2500000), wk =   0.2222222
        k(    5) = (   0.0833333   0.2500000   0.4166667), wk =   0.4444444
        k(    6) = (   0.0833333   0.4166667   0.4166667), wk =   0.2222222
        k(    7) = (   0.2500000   0.2500000   0.2500000), wk =   0.0740741
        k(    8) = (   0.2500000   0.2500000   0.4166667), wk =   0.2222222
        k(    9) = (   0.2500000   0.4166667   0.4166667), wk =   0.2222222
        k(   10) = (   0.4166667   0.4166667   0.4166667), wk =   0.0740741

     Dense  grid:    43867 G-vectors     FFT dimensions: (  45,  45,  45)

     Estimated max dynamical RAM per process >       7.62 MB

     Estimated total dynamical RAM >     152.33 MB

     Check: negative core charge=   -0.000003

     Initial potential from superposition of free atoms

     starting charge   63.99678, renormalised to   64.00000
     Starting wfcs are   36 randomized atomic wfcs

     total cpu time spent up to now is        0.4 secs

     Self-consistent Calculation

     iteration #  1     ecut=    75.00 Ry     beta= 0.70
     Davidson diagonalization with overlap
     ethr =  1.00E-02,  avg # of iterations =  2.0

     total cpu time spent up to now is        0.9 secs

     total energy              =    -607.74434603 Ry
     Harris-Foulkes estimate   =    -608.85683484 Ry
     estimated scf accuracy    <       1.54703307 Ry

     iteration #  2     ecut=    75.00 Ry     beta= 0.70
     Davidson diagonalization with overlap
     ethr =  2.42E-03,  avg # of iterations =  2.9

     total cpu time spent up to now is        1.3 secs

     total energy              =    -608.13605248 Ry
     Harris-Foulkes estimate   =    -608.79207272 Ry
     estimated scf accuracy    <       1.34797334 Ry

     iteration #  3     ecut=    75.00 Ry     beta= 0.70
     Davidson diagonalization with overlap
     ethr =  2.11E-03,  avg # of iterations =  2.0

     total cpu time spent up to now is        1.7 secs

     total energy              =    -608.40295430 Ry
     Harris-Foulkes estimate   =    -608.40352780 Ry
     estimated scf accuracy    <       0.00637041 Ry

     iteration #  4     ecut=    75.00 Ry     beta= 0.70
     Davidson diagonalization with overlap
     ethr =  9.95E-06,  avg # of iterations =  2.0

     total cpu time spent up to now is        2.1 secs

     total energy              =    -608.40430445 Ry
     Harris-Foulkes estimate   =    -608.40434633 Ry
     estimated scf accuracy    <       0.00010406 Ry

     iteration #  5     ecut=    75.00 Ry     beta= 0.70
     Davidson diagonalization with overlap
     ethr =  1.63E-07,  avg # of iterations =  1.4

     total cpu time spent up to now is        2.5 secs

     total energy              =    -608.40431044 Ry
     Harris-Foulkes estimate   =    -608.40430977 Ry
     estimated scf accuracy    <       0.00001106 Ry

     iteration #  6     ecut=    75.00 Ry     beta= 0.70
     Davidson diagonalization with overlap
     ethr =  1.73E-08,  avg # of iterations =  2.0

     total cpu time spent up to now is        2.9 secs

     total energy              =    -608.40431221 Ry
     Harris-Foulkes estimate   =    -608.40431267 Ry
     estimated scf accuracy    <       0.00000123 Ry

     iteration #  7     ecut=    75.00 Ry     beta= 0.70
     Davidson diagonalization with overlap
     ethr =  1.93E-09,  avg # of iterations =  2.0

     total cpu time spent up to now is        3.3 secs

     total energy              =    -608.40431218 Ry
     Harris-Foulkes estimate   =    -608.40431231 Ry
     estimated scf accuracy    <       0.00000034 Ry

     iteration #  8     ecut=    75.00 Ry     beta= 0.70
     Davidson diagonalization with overlap
     ethr =  5.31E-10,  avg # of iterations =  2.0

     total cpu time spent up to now is        3.7 secs

     total energy              =    -608.40431218 Ry
     Harris-Foulkes estimate   =    -608.40431221 Ry
     estimated scf accuracy    <       0.00000006 Ry

     iteration #  9     ecut=    75.00 Ry     beta= 0.70
     Davidson diagonalization with overlap
     ethr =  8.78E-11,  avg # of iterations =  2.0

     total cpu time spent up to now is        4.2 secs

     End of self-consistent calculation

          k = 0.0833 0.0833 0.0833 (  5518 PWs)   bands (ev):

   -64.2868 -64.2763 -64.2763 -64.2755 -31.1059 -31.1059 -31.1059 -31.0663
   -31.0663 -31.0662 -31.0630 -31.0629 -31.0629 -31.0418 -31.0365 -31.0365
    -9.0473  -7.5961  -7.5960  -7.5960   4.1278   4.1278   4.1278   6.5505
     6.5508   6.5508   6.7793   6.7793   6.7795   7.6066   8.0257   8.0257

          k = 0.0833 0.0833 0.2500 (  5525 PWs)   bands (ev):

   -64.2854 -64.2775 -64.2763 -64.2757 -31.1010 -31.1010 -31.0990 -31.0726
   -31.0725 -31.0623 -31.0623 -31.0617 -31.0594 -31.0529 -31.0402 -31.0389
    -8.8552  -7.7908  -7.5680  -7.5679   4.3603   4.3603   4.3961   6.0453
     6.0454   6.6922   6.6925   6.7460   6.7883   6.9238   7.8316   7.8608

          k = 0.0833 0.0833 0.4167 (  5514 PWs)   bands (ev):

   -64.2829 -64.2800 -64.2763 -64.2757 -31.0932 -31.0931 -31.0859 -31.0809
   -31.0807 -31.0689 -31.0629 -31.0629 -31.0537 -31.0531 -31.0460 -31.0452
    -8.5198  -8.1295  -7.5396  -7.5396   4.7756   4.7756   4.9602   5.4528
     5.4528   5.8016   6.5261   6.5264   7.0886   7.1881   7.4976   7.5187

          k = 0.0833 0.2500 0.2500 (  5509 PWs)   bands (ev):

   -64.2841 -64.2775 -64.2771 -64.2760 -31.0992 -31.0990 -31.0977 -31.0797
   -31.0661 -31.0661 -31.0654 -31.0576 -31.0575 -31.0569 -31.0432 -31.0378
    -8.6782  -7.7324  -7.7323  -7.5678   4.4311   4.4311   4.5294   5.5205
     6.0924   6.3402   6.3405   6.8981   6.8982   6.9568   7.6104   7.8764

          k = 0.0833 0.2500 0.4167 (  5520 PWs)   bands (ev):

   -64.2820 -64.2795 -64.2771 -64.2763 -31.0983 -31.0966 -31.0926 -31.0804
   -31.0801 -31.0735 -31.0579 -31.0556 -31.0548 -31.0498 -31.0494 -31.0415
    -8.3731  -8.0257  -7.6509  -7.5901   4.5087   4.6260   4.7299   5.3162
     5.3886   5.8097   6.7680   6.8917   6.9677   7.2193   7.2559   7.6387

          k = 0.0833 0.4167 0.4167 (  5511 PWs)   bands (ev):

   -64.2804 -64.2788 -64.2784 -64.2773 -31.0998 -31.0986 -31.0984 -31.0920
   -31.0737 -31.0653 -31.0652 -31.0566 -31.0485 -31.0469 -31.0466 -31.0414
    -8.1276  -7.8616  -7.8615  -7.7007   4.4326   4.4827   4.4828   4.7855
     5.7326   6.2514   6.2517   6.7537   7.2606   7.3237   7.3238   7.6000

          k = 0.2500 0.2500 0.2500 (  5527 PWs)   bands (ev):

   -64.2831 -64.2775 -64.2775 -64.2767 -31.1035 -31.1032 -31.1032 -31.0786
   -31.0660 -31.0660 -31.0657 -31.0545 -31.0544 -31.0544 -31.0403 -31.0403
    -8.5180  -7.7005  -7.7004  -7.7004   4.2846   4.2846   4.2846   5.4317
     6.1777   6.1779   6.1779   7.0672   7.0672   7.0675   7.7390   7.7390

          k = 0.2500 0.2500 0.4167 (  5540 PWs)   bands (ev):

   -64.2812 -64.2791 -64.2775 -64.2769 -31.1072 -31.1070 -31.1019 -31.0928
   -31.0656 -31.0653 -31.0523 -31.0521 -31.0520 -31.0500 -31.0448 -31.0431
    -8.2462  -7.9452  -7.6681  -7.6680   4.1234   4.1234   4.3361   4.7526
     6.1565   6.1565   6.9095   7.1020   7.1022   7.2671   7.4947   7.5124

          k = 0.2500 0.4167 0.4167 (  5560 PWs)   bands (ev):

   -64.2800 -64.2788 -64.2784 -64.2775 -31.1123 -31.1104 -31.1102 -31.1050
   -31.0592 -31.0547 -31.0547 -31.0482 -31.0476 -31.0469 -31.0466 -31.0425
    -8.0393  -7.8259  -7.8259  -7.7234   3.8830   3.9692   3.9693   4.2099
     6.5145   6.8053   6.8055   7.2383   7.3043   7.3407   7.3408   7.5528

          k = 0.4167 0.4167 0.4167 (  5547 PWs)   bands (ev):

   -64.2794 -64.2788 -64.2788 -64.2778 -31.1186 -31.1183 -31.1183 -31.1159
   -31.0479 -31.0479 -31.0476 -31.0460 -31.0459 -31.0459 -31.0440 -31.0440
    -7.9067  -7.7898  -7.7897  -7.7897   3.6011   3.6012   3.6012   3.7276
     7.1956   7.1957   7.1957   7.3813   7.3813   7.3816   7.4724   7.4724

     highest occupied level (ev):     8.0257

!    total energy              =    -608.40431219 Ry
     Harris-Foulkes estimate   =    -608.40431219 Ry
     estimated scf accuracy    <          1.8E-09 Ry

     The total energy is the sum of the following terms:

     one-electron contribution =    -297.12690197 Ry
     hartree contribution      =     165.96433860 Ry
     xc contribution           =     -97.98927314 Ry
     ewald contribution        =    -379.25247568 Ry

     convergence has been achieved in   9 iterations

     Forces acting on atoms (cartesian axes, Ry/au):

     atom    1 type  1   force =     0.00000000    0.00000000    0.00000000
     atom    2 type  1   force =     0.00000000    0.00000000    0.00000000
     atom    3 type  1   force =     0.00000000    0.00000000    0.00000000
     atom    4 type  1   force =     0.00000000   -0.00000000    0.00000000
     atom    5 type  2   force =     0.00000000    0.00000000    0.00000000
     atom    6 type  2   force =     0.00000000   -0.00000000    0.00000000
     atom    7 type  2   force =     0.00000000    0.00000000    0.00000000
     atom    8 type  2   force =     0.00000000    0.00000000    0.00000000

     Total force =     0.000000     Total SCF correction =     0.000000

     Writing output data file MgO_666_shift.save/
 
     init_run     :      0.21s CPU      0.24s WALL (       1 calls)
     electrons    :      3.62s CPU      3.80s WALL (       1 calls)
     forces       :      0.05s CPU      0.05s WALL (       1 calls)

     Called by init_run:
     wfcinit      :      0.16s CPU      0.17s WALL (       1 calls)
     potinit      :      0.02s CPU      0.02s WALL (       1 calls)
     hinit0       :      0.02s CPU      0.03s WALL (       1 calls)

     Called by electrons:
     c_bands      :      3.14s CPU      3.24s WALL (       9 calls)
     sum_band     :      0.42s CPU      0.44s WALL (       9 calls)
     v_of_rho     :      0.05s CPU      0.05s WALL (      10 calls)
     mix_rho      :      0.01s CPU      0.01s WALL (       9 calls)

     Called by c_bands:
     init_us_2    :      0.04s CPU      0.04s WALL (     200 calls)
     cegterg      :      2.98s CPU      3.07s WALL (      90 calls)

     Called by sum_band:

     Called by *egterg:
     h_psi        :      2.22s CPU      2.31s WALL (     283 calls)
     g_psi        :      0.01s CPU      0.01s WALL (     183 calls)
     cdiaghg      :      0.55s CPU      0.55s WALL (     273 calls)

     Called by h_psi:
     h_psi:pot    :      2.21s CPU      2.30s WALL (     283 calls)
     h_psi:calbec :      0.13s CPU      0.14s WALL (     283 calls)
     vloc_psi     :      1.95s CPU      2.03s WALL (     283 calls)
     add_vuspsi   :      0.12s CPU      0.13s WALL (     283 calls)

     General routines
     calbec       :      0.15s CPU      0.16s WALL (     323 calls)
     fft          :      0.03s CPU      0.03s WALL (     110 calls)
     ffts         :      0.00s CPU      0.00s WALL (       9 calls)
     fftw         :      2.17s CPU      2.27s WALL (   18096 calls)
 
     Parallel routines
     fft_scatt_xy :      0.23s CPU      0.23s WALL (   18215 calls)
     fft_scatt_yz :      1.08s CPU      1.14s WALL (   18215 calls)
 
     PWSCF        :      4.14s CPU      5.34s WALL

 
   This run was terminated on:  18: 0:17   9Sep2020            

=------------------------------------------------------------------------------=
   JOB DONE.
=------------------------------------------------------------------------------=

     Program PWSCF v.6.4.1 starts on  9Sep2020 at 18: 0:18 

     This program is part of the open-source Quantum ESPRESSO suite
     for quantum simulation of materials; please cite
         "P. Giannozzi et al., J. Phys.:Condens. Matter 21 395502 (2009);
         "P. Giannozzi et al., J. Phys.:Condens. Matter 29 465901 (2017);
          URL http://www.quantum-espresso.org", 
     in publications or presentations arising from this work. More details at
     http://www.quantum-espresso.org/quote

     Parallel version (MPI & OpenMP), running on      20 processor cores
     Number of MPI processes:                20
     Threads/MPI process:                     1

     MPI processes distributed on     1 nodes
     R & G space division:  proc/nbgrp/npool/nimage =      20
     Reading input from /home/hpc/rzku/phyv025h/Exercise_sheet_1/Exercise_1/1_c/MgO_888_shift.in

     Current dimensions of program PWSCF are:
     Max number of different atomic species (ntypx) = 10
     Max number of k-points (npk) =  40000
     Max angular momentum in pseudopotentials (lmaxx) =  3

     IMPORTANT: XC functional enforced from input :
     Exchange-correlation      = PBE ( 1  4  3  4 0 0)
     Any further DFT definition will be discarded
     Please, verify this is what you really want


     Subspace diagonalization in iterative solution of the eigenvalue problem:
     a serial algorithm will be used

     Found symmetry operation: I + ( -0.5000 -0.5000  0.0000)
     This is a supercell, fractional translations are disabled
     Message from routine setup:
     DEPRECATED: symmetry with ibrav=0, use correct ibrav instead
 
     Parallelization info
     --------------------
     sticks:   dense  smooth     PW     G-vecs:    dense   smooth      PW
     Min          74      74     21                 2192     2192     337
     Max          75      75     22                 2197     2197     340
     Sum        1489    1489    437                43867    43867    6763
 


     bravais-lattice index     =            0
     lattice parameter (alat)  =       7.9557  a.u.
     unit-cell volume          =     503.5503 (a.u.)^3
     number of atoms/cell      =            8
     number of atomic types    =            2
     number of electrons       =        64.00
     number of Kohn-Sham states=           32
     kinetic-energy cutoff     =      75.0000  Ry
     charge density cutoff     =     300.0000  Ry
     convergence threshold     =      1.0E-08
     mixing beta               =       0.7000
     number of iterations used =            8  plain     mixing
     Exchange-correlation      = PBE ( 1  4  3  4 0 0)

     celldm(1)=   7.955747  celldm(2)=   0.000000  celldm(3)=   0.000000
     celldm(4)=   0.000000  celldm(5)=   0.000000  celldm(6)=   0.000000

     crystal axes: (cart. coord. in units of alat)
               a(1) = (   1.000000   0.000000   0.000000 )  
               a(2) = (   0.000000   1.000000   0.000000 )  
               a(3) = (   0.000000   0.000000   1.000000 )  

     reciprocal axes: (cart. coord. in units 2 pi/alat)
               b(1) = (  1.000000  0.000000  0.000000 )  
               b(2) = (  0.000000  1.000000  0.000000 )  
               b(3) = (  0.000000  0.000000  1.000000 )  


     PseudoPot. # 1 for Mg read from file:
     ./Mg.nc.UPF
     MD5 check sum: 4c04d8c6e0476e83eaecaf72fa8acc4d
     Pseudo is Norm-conserving, Zval = 10.0
     Generated using ONCVPSP code by D. R. Hamann
     Using radial grid of 1510 points,  4 beta functions with: 
                l(1) =   0
                l(2) =   0
                l(3) =   1
                l(4) =   1

     PseudoPot. # 2 for O  read from file:
     ./O.nc.UPF
     MD5 check sum: 3e3f909f7470e8921608ab6b1f57bbae
     Pseudo is Norm-conserving + core correction, Zval =  6.0
     Generated using ONCVPSP code by D. R. Hamann
     Using radial grid of  936 points,  5 beta functions with: 
                l(1) =   0
                l(2) =   0
                l(3) =   1
                l(4) =   1
                l(5) =   2

     atomic species   valence    mass     pseudopotential
        Mg            10.00    24.30500     Mg( 1.00)
        O              6.00    15.99900     O ( 1.00)

     48 Sym. Ops., with inversion, found



   Cartesian axes

     site n.     atom                  positions (alat units)
         1           Mg  tau(   1) = (   0.0000000   0.0000000   0.0000000  )
         2           Mg  tau(   2) = (   0.5000000   0.5000000   0.0000000  )
         3           Mg  tau(   3) = (   0.5000000   0.0000000   0.5000000  )
         4           Mg  tau(   4) = (   0.0000000   0.5000000   0.5000000  )
         5           O   tau(   5) = (   0.5000000   0.0000000   0.0000000  )
         6           O   tau(   6) = (   0.0000000   0.5000000   0.0000000  )
         7           O   tau(   7) = (   0.0000000   0.0000000   0.5000000  )
         8           O   tau(   8) = (   0.5000000   0.5000000   0.5000000  )

     number of k points=    20
                       cart. coord. in units 2pi/alat
        k(    1) = (   0.0625000   0.0625000   0.0625000), wk =   0.0312500
        k(    2) = (   0.0625000   0.0625000   0.1875000), wk =   0.0937500
        k(    3) = (   0.0625000   0.0625000   0.3125000), wk =   0.0937500
        k(    4) = (   0.0625000   0.0625000   0.4375000), wk =   0.0937500
        k(    5) = (   0.0625000   0.1875000   0.1875000), wk =   0.0937500
        k(    6) = (   0.0625000   0.1875000   0.3125000), wk =   0.1875000
        k(    7) = (   0.0625000   0.1875000   0.4375000), wk =   0.1875000
        k(    8) = (   0.0625000   0.3125000   0.3125000), wk =   0.0937500
        k(    9) = (   0.0625000   0.3125000   0.4375000), wk =   0.1875000
        k(   10) = (   0.0625000   0.4375000   0.4375000), wk =   0.0937500
        k(   11) = (   0.1875000   0.1875000   0.1875000), wk =   0.0312500
        k(   12) = (   0.1875000   0.1875000   0.3125000), wk =   0.0937500
        k(   13) = (   0.1875000   0.1875000   0.4375000), wk =   0.0937500
        k(   14) = (   0.1875000   0.3125000   0.3125000), wk =   0.0937500
        k(   15) = (   0.1875000   0.3125000   0.4375000), wk =   0.1875000
        k(   16) = (   0.1875000   0.4375000   0.4375000), wk =   0.0937500
        k(   17) = (   0.3125000   0.3125000   0.3125000), wk =   0.0312500
        k(   18) = (   0.3125000   0.3125000   0.4375000), wk =   0.0937500
        k(   19) = (   0.3125000   0.4375000   0.4375000), wk =   0.0937500
        k(   20) = (   0.4375000   0.4375000   0.4375000), wk =   0.0312500

     Dense  grid:    43867 G-vectors     FFT dimensions: (  45,  45,  45)

     Estimated max dynamical RAM per process >       8.96 MB

     Estimated total dynamical RAM >     179.28 MB

     Check: negative core charge=   -0.000003

     Initial potential from superposition of free atoms

     starting charge   63.99678, renormalised to   64.00000
     Starting wfcs are   36 randomized atomic wfcs

     total cpu time spent up to now is        0.6 secs

     Self-consistent Calculation

     iteration #  1     ecut=    75.00 Ry     beta= 0.70
     Davidson diagonalization with overlap
     ethr =  1.00E-02,  avg # of iterations =  2.0

     total cpu time spent up to now is        1.4 secs

     total energy              =    -607.74299022 Ry
     Harris-Foulkes estimate   =    -608.85665050 Ry
     estimated scf accuracy    <       1.54855321 Ry

     iteration #  2     ecut=    75.00 Ry     beta= 0.70
     Davidson diagonalization with overlap
     ethr =  2.42E-03,  avg # of iterations =  3.0

     total cpu time spent up to now is        2.3 secs

     total energy              =    -608.13559643 Ry
     Harris-Foulkes estimate   =    -608.79296265 Ry
     estimated scf accuracy    <       1.35102931 Ry

     iteration #  3     ecut=    75.00 Ry     beta= 0.70
     Davidson diagonalization with overlap
     ethr =  2.11E-03,  avg # of iterations =  2.0

     total cpu time spent up to now is        3.1 secs

     total energy              =    -608.40295273 Ry
     Harris-Foulkes estimate   =    -608.40352109 Ry
     estimated scf accuracy    <       0.00636493 Ry

     iteration #  4     ecut=    75.00 Ry     beta= 0.70
     Davidson diagonalization with overlap
     ethr =  9.95E-06,  avg # of iterations =  2.0

     total cpu time spent up to now is        3.9 secs

     total energy              =    -608.40430073 Ry
     Harris-Foulkes estimate   =    -608.40434333 Ry
     estimated scf accuracy    <       0.00010543 Ry

     iteration #  5     ecut=    75.00 Ry     beta= 0.70
     Davidson diagonalization with overlap
     ethr =  1.65E-07,  avg # of iterations =  1.3

     total cpu time spent up to now is        4.5 secs

     total energy              =    -608.40430643 Ry
     Harris-Foulkes estimate   =    -608.40430604 Ry
     estimated scf accuracy    <       0.00001128 Ry

     iteration #  6     ecut=    75.00 Ry     beta= 0.70
     Davidson diagonalization with overlap
     ethr =  1.76E-08,  avg # of iterations =  2.0

     total cpu time spent up to now is        5.5 secs

     total energy              =    -608.40430832 Ry
     Harris-Foulkes estimate   =    -608.40430880 Ry
     estimated scf accuracy    <       0.00000124 Ry

     iteration #  7     ecut=    75.00 Ry     beta= 0.70
     Davidson diagonalization with overlap
     ethr =  1.94E-09,  avg # of iterations =  2.0

     total cpu time spent up to now is        6.2 secs

     total energy              =    -608.40430827 Ry
     Harris-Foulkes estimate   =    -608.40430840 Ry
     estimated scf accuracy    <       0.00000031 Ry

     iteration #  8     ecut=    75.00 Ry     beta= 0.70
     Davidson diagonalization with overlap
     ethr =  4.91E-10,  avg # of iterations =  2.0

     total cpu time spent up to now is        7.0 secs

     total energy              =    -608.40430830 Ry
     Harris-Foulkes estimate   =    -608.40430832 Ry
     estimated scf accuracy    <       0.00000003 Ry

     iteration #  9     ecut=    75.00 Ry     beta= 0.70
     Davidson diagonalization with overlap
     ethr =  4.59E-11,  avg # of iterations =  2.0

     total cpu time spent up to now is        7.9 secs

     End of self-consistent calculation

          k = 0.0625 0.0625 0.0625 (  5509 PWs)   bands (ev):

   -64.2870 -64.2762 -64.2762 -64.2754 -31.1068 -31.1068 -31.1068 -31.0655
   -31.0655 -31.0654 -31.0635 -31.0635 -31.0635 -31.0392 -31.0362 -31.0362
    -9.0804  -7.5886  -7.5884  -7.5884   4.0860   4.0860   4.0860   6.6277
     6.6280   6.6280   6.7609   6.7609   6.7611   7.7988   8.0457   8.0457

          k = 0.0625 0.0625 0.1875 (  5513 PWs)   bands (ev):

   -64.2862 -64.2769 -64.2762 -64.2755 -31.1038 -31.1038 -31.1024 -31.0693
   -31.0692 -31.0631 -31.0630 -31.0629 -31.0614 -31.0461 -31.0384 -31.0377
    -8.9688  -7.7028  -7.5712  -7.5711   4.2266   4.2266   4.2475   6.3054
     6.3055   6.7044   6.7046   6.7281   6.8444   7.2605   7.9300   7.9534

          k = 0.0625 0.0625 0.3125 (  5532 PWs)   bands (ev):

   -64.2846 -64.2784 -64.2762 -64.2756 -31.0983 -31.0983 -31.0943 -31.0753
   -31.0752 -31.0639 -31.0639 -31.0585 -31.0575 -31.0564 -31.0421 -31.0413
    -8.7615  -7.9144  -7.5465  -7.5464   4.4978   4.4978   4.5795   5.8583
     5.8584   6.5108   6.5566   6.5569   6.9161   7.0038   7.7260   7.7357

          k = 0.0625 0.0625 0.4375 (  5521 PWs)   bands (ev):

   -64.2826 -64.2804 -64.2762 -64.2756 -31.0914 -31.0913 -31.0828 -31.0823
   -31.0822 -31.0693 -31.0643 -31.0643 -31.0527 -31.0524 -31.0471 -31.0467
    -8.4884  -8.1907  -7.5289  -7.5289   4.8712   4.8712   5.0862   5.3787
     5.3788   5.7487   6.4432   6.4435   7.1697   7.2229   7.4569   7.4756

          k = 0.0625 0.1875 0.1875 (  5517 PWs)   bands (ev):

   -64.2854 -64.2770 -64.2767 -64.2758 -31.1012 -31.1011 -31.1010 -31.0751
   -31.0662 -31.0662 -31.0607 -31.0606 -31.0599 -31.0539 -31.0402 -31.0370
    -8.8620  -7.6751  -7.6750  -7.5629   4.3234   4.3234   4.3581   5.8815
     6.4407   6.4410   6.7604   6.8083   6.8083   6.8644   7.8085   7.9588

          k = 0.0625 0.1875 0.3125 (  5511 PWs)   bands (ev):

   -64.2840 -64.2782 -64.2767 -64.2759 -31.0987 -31.0964 -31.0959 -31.0809
   -31.0714 -31.0648 -31.0610 -31.0599 -31.0583 -31.0559 -31.0441 -31.0390
    -8.6643  -7.8693  -7.6312  -7.5557   4.4647   4.5484   4.5974   5.4684
     6.0278   6.1058   6.6768   6.7285   6.8637   7.0059   7.5760   7.8159

          k = 0.0625 0.1875 0.4375 (  5519 PWs)   bands (ev):

   -64.2821 -64.2800 -64.2766 -64.2760 -31.0956 -31.0932 -31.0876 -31.0830
   -31.0780 -31.0764 -31.0591 -31.0582 -31.0552 -31.0497 -31.0492 -31.0435
    -8.4054  -8.1258  -7.5886  -7.5619   4.6535   4.7929   4.9300   5.2755
     5.4647   5.5792   6.7088   6.7755   6.9696   7.2720   7.2820   7.5625

          k = 0.0625 0.3125 0.3125 (  5522 PWs)   bands (ev):

   -64.2828 -64.2781 -64.2776 -64.2763 -31.0977 -31.0975 -31.0952 -31.0834
   -31.0753 -31.0661 -31.0661 -31.0540 -31.0537 -31.0535 -31.0483 -31.0387
    -8.4856  -7.7926  -7.7925  -7.5814   4.5078   4.5079   4.6838   5.2487
     5.5709   6.2930   6.2933   7.0179   7.0180   7.0551   7.3024   7.7914

          k = 0.0625 0.3125 0.4375 (  5511 PWs)   bands (ev):

   -64.2812 -64.2794 -64.2775 -64.2767 -31.0981 -31.0969 -31.0933 -31.0855
   -31.0791 -31.0725 -31.0600 -31.0537 -31.0520 -31.0518 -31.0468 -31.0414
    -8.2552  -8.0111  -7.7061  -7.6315   4.5058   4.5867   4.7066   5.0744
     5.4497   5.8515   6.6139   6.9638   7.0628   7.1007   7.3410   7.6196

          k = 0.0625 0.4375 0.4375 (  5508 PWs)   bands (ev):

   -64.2800 -64.2788 -64.2785 -64.2775 -31.0988 -31.0975 -31.0973 -31.0932
   -31.0730 -31.0662 -31.0662 -31.0597 -31.0475 -31.0459 -31.0456 -31.0421
    -8.0660  -7.8724  -7.8723  -7.7383   4.4762   4.5269   4.5269   4.7306
     5.7823   6.1918   6.1921   6.5785   7.3013   7.3688   7.3688   7.5612

          k = 0.1875 0.1875 0.1875 (  5527 PWs)   bands (ev):

   -64.2847 -64.2770 -64.2770 -64.2762 -31.1012 -31.1010 -31.1010 -31.0695
   -31.0695 -31.0693 -31.0623 -31.0582 -31.0582 -31.0582 -31.0388 -31.0388
    -8.7603  -7.6563  -7.6562  -7.6562   4.3542   4.3542   4.3542   6.1362
     6.1364   6.1364   6.2887   6.9370   6.9370   6.9372   7.8629   7.8629

          k = 0.1875 0.1875 0.3125 (  5519 PWs)   bands (ev):

   -64.2834 -64.2781 -64.2770 -64.2763 -31.1011 -31.1010 -31.0990 -31.0734
   -31.0720 -31.0718 -31.0607 -31.0564 -31.0564 -31.0549 -31.0419 -31.0399
    -8.5726  -7.8323  -7.6294  -7.6293   4.3889   4.3889   4.4449   5.6864
     5.8851   5.8852   6.5398   6.9470   6.9472   7.0754   7.6921   7.7344

          k = 0.1875 0.1875 0.4375 (  5532 PWs)   bands (ev):

   -64.2817 -64.2798 -64.2770 -64.2764 -31.1014 -31.1012 -31.0935 -31.0843
   -31.0733 -31.0730 -31.0558 -31.0558 -31.0518 -31.0505 -31.0461 -31.0446
    -8.3288  -8.0683  -7.6102  -7.6101   4.4034   4.4035   4.6995   5.1270
     5.7650   5.7651   6.9057   6.9060   6.9933   7.2644   7.4184   7.4804

          k = 0.1875 0.3125 0.3125 (  5529 PWs)   bands (ev):

   -64.2823 -64.2781 -64.2777 -64.2767 -31.1042 -31.1031 -31.1030 -31.0841
   -31.0708 -31.0623 -31.0622 -31.0528 -31.0527 -31.0526 -31.0443 -31.0398
    -8.4051  -7.7716  -7.7715  -7.6348   4.2590   4.2911   4.2911   5.1563
     5.8787   6.3891   6.3893   7.1062   7.1073   7.1074   7.5174   7.7299

          k = 0.1875 0.3125 0.4375 (  5538 PWs)   bands (ev):

   -64.2809 -64.2793 -64.2777 -64.2770 -31.1062 -31.1058 -31.1007 -31.0941
   -31.0679 -31.0649 -31.0544 -31.0510 -31.0509 -31.0486 -31.0474 -31.0423
    -8.1912  -7.9680  -7.7076  -7.6593   4.1631   4.1746   4.3914   4.6942
     6.0173   6.2123   6.8601   7.1313   7.1510   7.2384   7.3291   7.5700

          k = 0.1875 0.4375 0.4375 (  5535 PWs)   bands (ev):

   -64.2798 -64.2788 -64.2785 -64.2776 -31.1080 -31.1061 -31.1059 -31.1019
   -31.0631 -31.0584 -31.0584 -31.0530 -31.0471 -31.0459 -31.0457 -31.0426
    -8.0207  -7.8500  -7.8499  -7.7409   4.0662   4.1514   4.1514   4.3382
     6.3075   6.6057   6.6059   6.9513   7.3205   7.3734   7.3735   7.5408

          k = 0.3125 0.3125 0.3125 (  5545 PWs)   bands (ev):

   -64.2814 -64.2781 -64.2781 -64.2772 -31.1093 -31.1090 -31.1090 -31.0950
   -31.0590 -31.0590 -31.0587 -31.0507 -31.0507 -31.0507 -31.0421 -31.0421
    -8.2600  -7.7418  -7.7416  -7.7416   4.0268   4.0268   4.0268   4.6526
     6.5094   6.5096   6.5096   7.2024   7.2024   7.2027   7.6188   7.6188

          k = 0.3125 0.3125 0.4375 (  5547 PWs)   bands (ev):

   -64.2803 -64.2790 -64.2781 -64.2774 -31.1129 -31.1127 -31.1090 -31.1041
   -31.0578 -31.0575 -31.0493 -31.0489 -31.0489 -31.0478 -31.0448 -31.0436
    -8.0789  -7.8960  -7.7204  -7.7203   3.8598   3.8599   4.0222   4.2445
     6.5937   6.5938   7.0663   7.2475   7.2477   7.3325   7.4631   7.4785

          k = 0.3125 0.4375 0.4375 (  5558 PWs)   bands (ev):

   -64.2795 -64.2788 -64.2786 -64.2777 -31.1162 -31.1148 -31.1147 -31.1116
   -31.0533 -31.0505 -31.0505 -31.0469 -31.0464 -31.0459 -31.0457 -31.0432
    -7.9448  -7.8181  -7.8180  -7.7560   3.7096   3.7690   3.7691   3.9077
     6.8753   7.0449   7.0451   7.3154   7.3562   7.3822   7.3823   7.5036

          k = 0.4375 0.4375 0.4375 (  5538 PWs)   bands (ev):

   -64.2792 -64.2788 -64.2788 -64.2779 -31.1197 -31.1195 -31.1195 -31.1181
   -31.0465 -31.0465 -31.0462 -31.0454 -31.0454 -31.0454 -31.0443 -31.0443
    -7.8620  -7.7953  -7.7952  -7.7952   3.5479   3.5480   3.5480   3.6195
     7.2953   7.2954   7.2954   7.4033   7.4033   7.4036   7.4552   7.4552

     highest occupied level (ev):     8.0457

!    total energy              =    -608.40430830 Ry
     Harris-Foulkes estimate   =    -608.40430831 Ry
     estimated scf accuracy    <          2.5E-09 Ry

     The total energy is the sum of the following terms:

     one-electron contribution =    -297.12690207 Ry
     hartree contribution      =     165.96436232 Ry
     xc contribution           =     -97.98929287 Ry
     ewald contribution        =    -379.25247568 Ry

     convergence has been achieved in   9 iterations

     Forces acting on atoms (cartesian axes, Ry/au):

     atom    1 type  1   force =     0.00000000    0.00000000    0.00000000
     atom    2 type  1   force =     0.00000000    0.00000000    0.00000000
     atom    3 type  1   force =     0.00000000    0.00000000    0.00000000
     atom    4 type  1   force =     0.00000000    0.00000000    0.00000000
     atom    5 type  2   force =     0.00000000    0.00000000    0.00000000
     atom    6 type  2   force =     0.00000000   -0.00000000    0.00000000
     atom    7 type  2   force =     0.00000000    0.00000000    0.00000000
     atom    8 type  2   force =     0.00000000    0.00000000    0.00000000

     Total force =     0.000000     Total SCF correction =     0.000000

     Writing output data file MgO_888_shift.save/
 
     init_run     :      0.37s CPU      0.40s WALL (       1 calls)
     electrons    :      7.09s CPU      7.41s WALL (       1 calls)
     forces       :      0.08s CPU      0.08s WALL (       1 calls)

     Called by init_run:
     wfcinit      :      0.31s CPU      0.33s WALL (       1 calls)
     potinit      :      0.01s CPU      0.03s WALL (       1 calls)
     hinit0       :      0.02s CPU      0.03s WALL (       1 calls)

     Called by electrons:
     c_bands      :      6.20s CPU      6.41s WALL (       9 calls)
     sum_band     :      0.82s CPU      0.86s WALL (       9 calls)
     v_of_rho     :      0.05s CPU      0.05s WALL (      10 calls)
     mix_rho      :      0.01s CPU      0.01s WALL (       9 calls)

     Called by c_bands:
     init_us_2    :      0.08s CPU      0.09s WALL (     400 calls)
     cegterg      :      5.89s CPU      6.09s WALL (     180 calls)

     Called by sum_band:

     Called by *egterg:
     h_psi        :      4.37s CPU      4.56s WALL (     565 calls)
     g_psi        :      0.03s CPU      0.03s WALL (     365 calls)
     cdiaghg      :      1.10s CPU      1.11s WALL (     545 calls)

     Called by h_psi:
     h_psi:pot    :      4.34s CPU      4.54s WALL (     565 calls)
     h_psi:calbec :      0.26s CPU      0.27s WALL (     565 calls)
     vloc_psi     :      3.83s CPU      4.01s WALL (     565 calls)
     add_vuspsi   :      0.25s CPU      0.25s WALL (     565 calls)

     General routines
     calbec       :      0.30s CPU      0.31s WALL (     645 calls)
     fft          :      0.03s CPU      0.03s WALL (     110 calls)
     ffts         :      0.00s CPU      0.00s WALL (       9 calls)
     fftw         :      4.26s CPU      4.45s WALL (   36354 calls)
 
     Parallel routines
     fft_scatt_xy :      0.45s CPU      0.47s WALL (   36473 calls)
     fft_scatt_yz :      2.07s CPU      2.18s WALL (   36473 calls)
 
     PWSCF        :      7.90s CPU      9.91s WALL

 
   This run was terminated on:  18: 0:28   9Sep2020            

=------------------------------------------------------------------------------=
   JOB DONE.
=------------------------------------------------------------------------------=

     Program PWSCF v.6.4.1 starts on  9Sep2020 at 18: 0:29 

     This program is part of the open-source Quantum ESPRESSO suite
     for quantum simulation of materials; please cite
         "P. Giannozzi et al., J. Phys.:Condens. Matter 21 395502 (2009);
         "P. Giannozzi et al., J. Phys.:Condens. Matter 29 465901 (2017);
          URL http://www.quantum-espresso.org", 
     in publications or presentations arising from this work. More details at
     http://www.quantum-espresso.org/quote

     Parallel version (MPI & OpenMP), running on      20 processor cores
     Number of MPI processes:                20
     Threads/MPI process:                     1

     MPI processes distributed on     1 nodes
     R & G space division:  proc/nbgrp/npool/nimage =      20
     Reading input from /home/hpc/rzku/phyv025h/Exercise_sheet_1/Exercise_1/1_c/MgO_101010_shift.in

     Current dimensions of program PWSCF are:
     Max number of different atomic species (ntypx) = 10
     Max number of k-points (npk) =  40000
     Max angular momentum in pseudopotentials (lmaxx) =  3

     IMPORTANT: XC functional enforced from input :
     Exchange-correlation      = PBE ( 1  4  3  4 0 0)
     Any further DFT definition will be discarded
     Please, verify this is what you really want


     Subspace diagonalization in iterative solution of the eigenvalue problem:
     a serial algorithm will be used

     Found symmetry operation: I + ( -0.5000 -0.5000  0.0000)
     This is a supercell, fractional translations are disabled
     Message from routine setup:
     DEPRECATED: symmetry with ibrav=0, use correct ibrav instead
 
     Parallelization info
     --------------------
     sticks:   dense  smooth     PW     G-vecs:    dense   smooth      PW
     Min          74      74     21                 2192     2192     337
     Max          75      75     22                 2197     2197     340
     Sum        1489    1489    437                43867    43867    6763
 


     bravais-lattice index     =            0
     lattice parameter (alat)  =       7.9557  a.u.
     unit-cell volume          =     503.5503 (a.u.)^3
     number of atoms/cell      =            8
     number of atomic types    =            2
     number of electrons       =        64.00
     number of Kohn-Sham states=           32
     kinetic-energy cutoff     =      75.0000  Ry
     charge density cutoff     =     300.0000  Ry
     convergence threshold     =      1.0E-08
     mixing beta               =       0.7000
     number of iterations used =            8  plain     mixing
     Exchange-correlation      = PBE ( 1  4  3  4 0 0)

     celldm(1)=   7.955747  celldm(2)=   0.000000  celldm(3)=   0.000000
     celldm(4)=   0.000000  celldm(5)=   0.000000  celldm(6)=   0.000000

     crystal axes: (cart. coord. in units of alat)
               a(1) = (   1.000000   0.000000   0.000000 )  
               a(2) = (   0.000000   1.000000   0.000000 )  
               a(3) = (   0.000000   0.000000   1.000000 )  

     reciprocal axes: (cart. coord. in units 2 pi/alat)
               b(1) = (  1.000000  0.000000  0.000000 )  
               b(2) = (  0.000000  1.000000  0.000000 )  
               b(3) = (  0.000000  0.000000  1.000000 )  


     PseudoPot. # 1 for Mg read from file:
     ./Mg.nc.UPF
     MD5 check sum: 4c04d8c6e0476e83eaecaf72fa8acc4d
     Pseudo is Norm-conserving, Zval = 10.0
     Generated using ONCVPSP code by D. R. Hamann
     Using radial grid of 1510 points,  4 beta functions with: 
                l(1) =   0
                l(2) =   0
                l(3) =   1
                l(4) =   1

     PseudoPot. # 2 for O  read from file:
     ./O.nc.UPF
     MD5 check sum: 3e3f909f7470e8921608ab6b1f57bbae
     Pseudo is Norm-conserving + core correction, Zval =  6.0
     Generated using ONCVPSP code by D. R. Hamann
     Using radial grid of  936 points,  5 beta functions with: 
                l(1) =   0
                l(2) =   0
                l(3) =   1
                l(4) =   1
                l(5) =   2

     atomic species   valence    mass     pseudopotential
        Mg            10.00    24.30500     Mg( 1.00)
        O              6.00    15.99900     O ( 1.00)

     48 Sym. Ops., with inversion, found



   Cartesian axes

     site n.     atom                  positions (alat units)
         1           Mg  tau(   1) = (   0.0000000   0.0000000   0.0000000  )
         2           Mg  tau(   2) = (   0.5000000   0.5000000   0.0000000  )
         3           Mg  tau(   3) = (   0.5000000   0.0000000   0.5000000  )
         4           Mg  tau(   4) = (   0.0000000   0.5000000   0.5000000  )
         5           O   tau(   5) = (   0.5000000   0.0000000   0.0000000  )
         6           O   tau(   6) = (   0.0000000   0.5000000   0.0000000  )
         7           O   tau(   7) = (   0.0000000   0.0000000   0.5000000  )
         8           O   tau(   8) = (   0.5000000   0.5000000   0.5000000  )

     number of k points=    35
                       cart. coord. in units 2pi/alat
        k(    1) = (   0.0500000   0.0500000   0.0500000), wk =   0.0160000
        k(    2) = (   0.0500000   0.0500000   0.1500000), wk =   0.0480000
        k(    3) = (   0.0500000   0.0500000   0.2500000), wk =   0.0480000
        k(    4) = (   0.0500000   0.0500000   0.3500000), wk =   0.0480000
        k(    5) = (   0.0500000   0.0500000   0.4500000), wk =   0.0480000
        k(    6) = (   0.0500000   0.1500000   0.1500000), wk =   0.0480000
        k(    7) = (   0.0500000   0.1500000   0.2500000), wk =   0.0960000
        k(    8) = (   0.0500000   0.1500000   0.3500000), wk =   0.0960000
        k(    9) = (   0.0500000   0.1500000   0.4500000), wk =   0.0960000
        k(   10) = (   0.0500000   0.2500000   0.2500000), wk =   0.0480000
        k(   11) = (   0.0500000   0.2500000   0.3500000), wk =   0.0960000
        k(   12) = (   0.0500000   0.2500000   0.4500000), wk =   0.0960000
        k(   13) = (   0.0500000   0.3500000   0.3500000), wk =   0.0480000
        k(   14) = (   0.0500000   0.3500000   0.4500000), wk =   0.0960000
        k(   15) = (   0.0500000   0.4500000   0.4500000), wk =   0.0480000
        k(   16) = (   0.1500000   0.1500000   0.1500000), wk =   0.0160000
        k(   17) = (   0.1500000   0.1500000   0.2500000), wk =   0.0480000
        k(   18) = (   0.1500000   0.1500000   0.3500000), wk =   0.0480000
        k(   19) = (   0.1500000   0.1500000   0.4500000), wk =   0.0480000
        k(   20) = (   0.1500000   0.2500000   0.2500000), wk =   0.0480000
        k(   21) = (   0.1500000   0.2500000   0.3500000), wk =   0.0960000
        k(   22) = (   0.1500000   0.2500000   0.4500000), wk =   0.0960000
        k(   23) = (   0.1500000   0.3500000   0.3500000), wk =   0.0480000
        k(   24) = (   0.1500000   0.3500000   0.4500000), wk =   0.0960000
        k(   25) = (   0.1500000   0.4500000   0.4500000), wk =   0.0480000
        k(   26) = (   0.2500000   0.2500000   0.2500000), wk =   0.0160000
        k(   27) = (   0.2500000   0.2500000   0.3500000), wk =   0.0480000
        k(   28) = (   0.2500000   0.2500000   0.4500000), wk =   0.0480000
        k(   29) = (   0.2500000   0.3500000   0.3500000), wk =   0.0480000
        k(   30) = (   0.2500000   0.3500000   0.4500000), wk =   0.0960000
        k(   31) = (   0.2500000   0.4500000   0.4500000), wk =   0.0480000
        k(   32) = (   0.3500000   0.3500000   0.3500000), wk =   0.0160000
        k(   33) = (   0.3500000   0.3500000   0.4500000), wk =   0.0480000
        k(   34) = (   0.3500000   0.4500000   0.4500000), wk =   0.0480000
        k(   35) = (   0.4500000   0.4500000   0.4500000), wk =   0.0160000

     Dense  grid:    43867 G-vectors     FFT dimensions: (  45,  45,  45)

     Estimated max dynamical RAM per process >      10.99 MB

     Estimated total dynamical RAM >     219.71 MB

     Check: negative core charge=   -0.000003

     Initial potential from superposition of free atoms

     starting charge   63.99678, renormalised to   64.00000
     Starting wfcs are   36 randomized atomic wfcs

     total cpu time spent up to now is        0.8 secs

     Self-consistent Calculation

     iteration #  1     ecut=    75.00 Ry     beta= 0.70
     Davidson diagonalization with overlap
     ethr =  1.00E-02,  avg # of iterations =  2.0

     total cpu time spent up to now is        2.2 secs

     total energy              =    -607.74239680 Ry
     Harris-Foulkes estimate   =    -608.85660035 Ry
     estimated scf accuracy    <       1.54921320 Ry

     iteration #  2     ecut=    75.00 Ry     beta= 0.70
     Davidson diagonalization with overlap
     ethr =  2.42E-03,  avg # of iterations =  2.9

     total cpu time spent up to now is        3.7 secs

     total energy              =    -608.13537654 Ry
     Harris-Foulkes estimate   =    -608.79334261 Ry
     estimated scf accuracy    <       1.35241331 Ry

     iteration #  3     ecut=    75.00 Ry     beta= 0.70
     Davidson diagonalization with overlap
     ethr =  2.11E-03,  avg # of iterations =  2.0

     total cpu time spent up to now is        5.1 secs

     total energy              =    -608.40293110 Ry
     Harris-Foulkes estimate   =    -608.40349207 Ry
     estimated scf accuracy    <       0.00635675 Ry

     iteration #  4     ecut=    75.00 Ry     beta= 0.70
     Davidson diagonalization with overlap
     ethr =  9.93E-06,  avg # of iterations =  2.0

     total cpu time spent up to now is        6.5 secs

     total energy              =    -608.40427634 Ry
     Harris-Foulkes estimate   =    -608.40431924 Ry
     estimated scf accuracy    <       0.00010598 Ry

     iteration #  5     ecut=    75.00 Ry     beta= 0.70
     Davidson diagonalization with overlap
     ethr =  1.66E-07,  avg # of iterations =  1.3

     total cpu time spent up to now is        7.6 secs

     total energy              =    -608.40428195 Ry
     Harris-Foulkes estimate   =    -608.40428163 Ry
     estimated scf accuracy    <       0.00001138 Ry

     iteration #  6     ecut=    75.00 Ry     beta= 0.70
     Davidson diagonalization with overlap
     ethr =  1.78E-08,  avg # of iterations =  2.0

     total cpu time spent up to now is        9.3 secs

     total energy              =    -608.40428389 Ry
     Harris-Foulkes estimate   =    -608.40428438 Ry
     estimated scf accuracy    <       0.00000129 Ry

     iteration #  7     ecut=    75.00 Ry     beta= 0.70
     Davidson diagonalization with overlap
     ethr =  2.01E-09,  avg # of iterations =  2.0

     total cpu time spent up to now is       10.5 secs

     total energy              =    -608.40428383 Ry
     Harris-Foulkes estimate   =    -608.40428397 Ry
     estimated scf accuracy    <       0.00000033 Ry

     iteration #  8     ecut=    75.00 Ry     beta= 0.70
     Davidson diagonalization with overlap
     ethr =  5.09E-10,  avg # of iterations =  2.0

     total cpu time spent up to now is       12.0 secs

     total energy              =    -608.40428387 Ry
     Harris-Foulkes estimate   =    -608.40428388 Ry
     estimated scf accuracy    <       0.00000003 Ry

     iteration #  9     ecut=    75.00 Ry     beta= 0.70
     Davidson diagonalization with overlap
     ethr =  4.47E-11,  avg # of iterations =  2.0

     total cpu time spent up to now is       13.6 secs

     End of self-consistent calculation

          k = 0.0500 0.0500 0.0500 (  5503 PWs)   bands (ev):

   -64.2872 -64.2762 -64.2762 -64.2754 -31.1073 -31.1073 -31.1073 -31.0651
   -31.0651 -31.0651 -31.0638 -31.0637 -31.0637 -31.0380 -31.0361 -31.0361
    -9.0959  -7.5850  -7.5849  -7.5849   4.0658   4.0658   4.0658   6.6657
     6.6659   6.6659   6.7523   6.7523   6.7526   7.8935   8.0551   8.0551

          k = 0.0500 0.0500 0.1500 (  5527 PWs)   bands (ev):

   -64.2867 -64.2766 -64.2762 -64.2755 -31.1054 -31.1054 -31.1044 -31.0677
   -31.0676 -31.0636 -31.0636 -31.0635 -31.0624 -31.0428 -31.0376 -31.0371
    -9.0234  -7.6595  -7.5734  -7.5733   4.1582   4.1582   4.1723   6.4470
     6.4471   6.7136   6.7139   6.7268   6.8064   7.5184   7.9790   7.9961

          k = 0.0500 0.0500 0.2500 (  5515 PWs)   bands (ev):

   -64.2856 -64.2776 -64.2762 -64.2756 -31.1015 -31.1015 -31.0989 -31.0718
   -31.0717 -31.0639 -31.0639 -31.0606 -31.0598 -31.0498 -31.0401 -31.0394
    -8.8851  -7.8016  -7.5546  -7.5545   4.3398   4.3398   4.3891   6.1208
     6.1209   6.6003   6.6005   6.8446   6.9115   6.9504   7.8389   7.8523

          k = 0.0500 0.0500 0.3500 (  5528 PWs)   bands (ev):

   -64.2842 -64.2790 -64.2762 -64.2756 -31.0963 -31.0963 -31.0909 -31.0771
   -31.0770 -31.0648 -31.0648 -31.0592 -31.0566 -31.0562 -31.0436 -31.0431
    -8.6935  -7.9971  -7.5357  -7.5356   4.6023   4.6023   4.7199   5.7331
     5.7331   6.3175   6.4772   6.4775   7.0106   7.0612   7.6546   7.6559

          k = 0.0500 0.0500 0.4500 (  5516 PWs)   bands (ev):

   -64.2825 -64.2807 -64.2762 -64.2756 -31.0903 -31.0902 -31.0831 -31.0830
   -31.0809 -31.0699 -31.0651 -31.0650 -31.0522 -31.0520 -31.0477 -31.0474
    -8.4666  -8.2265  -7.5239  -7.5238   4.9288   4.9288   5.1630   5.3347
     5.3347   5.7050   6.4004   6.4007   7.2127   7.2454   7.4347   7.4493

          k = 0.0500 0.1500 0.1500 (  5509 PWs)   bands (ev):

   -64.2861 -64.2767 -64.2765 -64.2757 -31.1034 -31.1031 -31.1030 -31.0716
   -31.0658 -31.0657 -31.0621 -31.0620 -31.0613 -31.0481 -31.0388 -31.0367
    -8.9529  -7.6436  -7.6435  -7.5656   4.2383   4.2383   4.2484   6.1354
     6.5230   6.5232   6.7763   6.7764   6.8197   7.1507   7.9025   7.9986

          k = 0.0500 0.1500 0.2500 (  5519 PWs)   bands (ev):

   -64.2851 -64.2775 -64.2765 -64.2758 -31.1006 -31.0997 -31.0990 -31.0767
   -31.0696 -31.0626 -31.0620 -31.0602 -31.0592 -31.0557 -31.0413 -31.0379
    -8.8185  -7.7778  -7.6164  -7.5541   4.3656   4.4075   4.4236   5.7813
     6.2122   6.6290   6.6646   6.6924   6.8163   6.8979   7.7501   7.9043

          k = 0.0500 0.1500 0.3500 (  5514 PWs)   bands (ev):

   -64.2838 -64.2789 -64.2765 -64.2759 -31.0974 -31.0949 -31.0926 -31.0815
   -31.0746 -31.0649 -31.0616 -31.0601 -31.0584 -31.0549 -31.0449 -31.0408
    -8.6327  -7.9636  -7.5859  -7.5457   4.5449   4.6687   4.6773   5.4438
     5.8394   6.0631   6.6178   6.7388   6.8558   7.0710   7.5467   7.7285

          k = 0.0500 0.1500 0.4500 (  5518 PWs)   bands (ev):

   -64.2822 -64.2804 -64.2765 -64.2759 -31.0936 -31.0913 -31.0844 -31.0842
   -31.0804 -31.0747 -31.0612 -31.0605 -31.0537 -31.0500 -31.0492 -31.0451
    -8.4136  -8.1828  -7.5607  -7.5468   4.7593   4.8905   5.0521   5.2303
     5.4608   5.5226   6.5989   6.6481   7.0787   7.2816   7.3155   7.5098

          k = 0.0500 0.2500 0.2500 (  5510 PWs)   bands (ev):

   -64.2842 -64.2776 -64.2772 -64.2760 -31.0987 -31.0986 -31.0965 -31.0817
   -31.0660 -31.0660 -31.0639 -31.0580 -31.0579 -31.0572 -31.0440 -31.0376
    -8.6918  -7.7356  -7.7355  -7.5570   4.4443   4.4443   4.5793   5.4371
     6.1701   6.3739   6.3742   6.8644   6.8644   6.9476   7.5765   7.8882

          k = 0.0500 0.2500 0.3500 (  5510 PWs)   bands (ev):

   -64.2830 -64.2786 -64.2772 -64.2762 -31.0979 -31.0950 -31.0938 -31.0846
[...]
    -8.6838  -7.8237  -7.6624  -7.5531   4.4472   4.5055   4.6048   5.4243
     6.1601   6.1661   6.5918   6.7559   6.9059   6.9521   7.5653   7.8594

          k = 0.0417 0.2083 0.3750 (  5505 PWs)   bands (ev):

   -64.2830 -64.2791 -64.2768 -64.2761 -31.0970 -31.0926 -31.0923 -31.0849
   -31.0740 -31.0715 -31.0591 -31.0587 -31.0573 -31.0524 -31.0476 -31.0405
    -8.5231  -7.9816  -7.6272  -7.5582   4.5521   4.7124   4.7934   5.2085
     5.7356   5.8398   6.7400   6.7654   6.8709   7.1366   7.3730   7.7173

          k = 0.0417 0.2083 0.4583 (  5509 PWs)   bands (ev):

   -64.2817 -64.2803 -64.2767 -64.2761 -31.0949 -31.0926 -31.0864 -31.0834
   -31.0791 -31.0789 -31.0579 -31.0573 -31.0552 -31.0513 -31.0480 -31.0439
    -8.3440  -8.1592  -7.5958  -7.5722   4.6808   4.8147   4.9910   5.2484
     5.3365   5.5198   6.7613   6.8124   6.9601   7.1666   7.3371   7.5367

          k = 0.0417 0.2917 0.2917 (  5509 PWs)   bands (ev):

   -64.2833 -64.2779 -64.2775 -64.2762 -31.0976 -31.0974 -31.0937 -31.0852
   -31.0709 -31.0663 -31.0663 -31.0552 -31.0551 -31.0550 -31.0471 -31.0383
    -8.5611  -7.7755  -7.7755  -7.5668   4.5055   4.5056   4.7358   5.1966
     5.7921   6.3154   6.3158   6.9520   6.9520   7.0145   7.3828   7.8292

          k = 0.0417 0.2917 0.3750 (  5515 PWs)   bands (ev):

   -64.2823 -64.2788 -64.2775 -64.2764 -31.0975 -31.0948 -31.0938 -31.0844
   -31.0780 -31.0707 -31.0626 -31.0540 -31.0535 -31.0506 -31.0506 -31.0396
    -8.4117  -7.9168  -7.7220  -7.5902   4.5216   4.6290   4.7569   5.1828
     5.4248   6.0049   6.5028   6.9720   7.0542   7.1686   7.1691   7.7317

          k = 0.0417 0.2917 0.4583 (  5505 PWs)   bands (ev):

   -64.2811 -64.2799 -64.2773 -64.2766 -31.0967 -31.0955 -31.0906 -31.0848
   -31.0803 -31.0754 -31.0586 -31.0544 -31.0531 -31.0528 -31.0461 -31.0422
    -8.2465  -8.0775  -7.6699  -7.6249   4.5680   4.6541   4.8264   5.0957
     5.3986   5.6896   6.7144   6.9407   7.0080   7.0436   7.3845   7.5781

          k = 0.0417 0.3750 0.3750 (  5515 PWs)   bands (ev):

   -64.2814 -64.2786 -64.2781 -64.2768 -31.0968 -31.0966 -31.0959 -31.0845
   -31.0809 -31.0668 -31.0667 -31.0542 -31.0508 -31.0494 -31.0492 -31.0401
    -8.2772  -7.8424  -7.8423  -7.6361   4.5583   4.5584   4.6338   5.1243
     5.3567   6.2048   6.2051   6.9310   7.1712   7.2046   7.2046   7.6854

          k = 0.0417 0.3750 0.4583 (  5508 PWs)   bands (ev):

   -64.2804 -64.2793 -64.2780 -64.2772 -31.0976 -31.0972 -31.0941 -31.0901
   -31.0763 -31.0715 -31.0625 -31.0583 -31.0491 -31.0486 -31.0450 -31.0420
    -8.1300  -7.9814  -7.7662  -7.6957   4.5251   4.5481   4.6739   4.8666
     5.6087   5.8990   6.4334   6.6800   7.2246   7.2293   7.4122   7.5765

          k = 0.0417 0.4583 0.4583 (  5508 PWs)   bands (ev):

   -64.2797 -64.2789 -64.2786 -64.2777 -31.0978 -31.0967 -31.0965 -31.0941
   -31.0718 -31.0671 -31.0671 -31.0626 -31.0465 -31.0453 -31.0450 -31.0429
    -8.0045  -7.8802  -7.8801  -7.7824   4.5177   4.5636   4.5637   4.6817
     5.8612   6.1416   6.1419   6.4073   7.3440   7.4033   7.4034   7.5198

          k = 0.1250 0.1250 0.1250 (  5497 PWs)   bands (ev):

   -64.2861 -64.2766 -64.2766 -64.2757 -31.1034 -31.1033 -31.1033 -31.0679
   -31.0679 -31.0678 -31.0614 -31.0614 -31.0614 -31.0485 -31.0372 -31.0372
    -8.9550  -7.6165  -7.6163  -7.6163   4.2305   4.2305   4.2305   6.3660
     6.3662   6.3662   6.8304   6.8304   6.8307   7.1276   7.9714   7.9714

          k = 0.1250 0.1250 0.2083 (  5514 PWs)   bands (ev):

   -64.2855 -64.2771 -64.2766 -64.2759 -31.1016 -31.1015 -31.1010 -31.0713
   -31.0712 -31.0650 -31.0604 -31.0604 -31.0597 -31.0547 -31.0390 -31.0378
    -8.8606  -7.7096  -7.6015  -7.6014   4.3232   4.3232   4.3300   6.1101
     6.1103   6.4965   6.7298   6.8293   6.8295   6.9004   7.8778   7.9183

          k = 0.1250 0.1250 0.2917 (  5517 PWs)   bands (ev):

   -64.2845 -64.2780 -64.2765 -64.2759 -31.0992 -31.0991 -31.0971 -31.0746
   -31.0745 -31.0617 -31.0610 -31.0601 -31.0601 -31.0573 -31.0413 -31.0395
    -8.7267  -7.8422  -7.5842  -7.5841   4.4515   4.4515   4.4923   5.8476
     5.8477   6.2800   6.6765   6.7770   6.7772   7.0015   7.7498   7.7859

          k = 0.1250 0.1250 0.3750 (  5537 PWs)   bands (ev):

   -64.2833 -64.2792 -64.2765 -64.2760 -31.0969 -31.0968 -31.0920 -31.0778
   -31.0776 -31.0696 -31.0601 -31.0601 -31.0563 -31.0543 -31.0444 -31.0427
    -8.5624  -8.0057  -7.5692  -7.5691   4.5962   4.5962   4.7250   5.6110
     5.6111   5.8261   6.7098   6.7101   6.8919   7.1294   7.5944   7.5985

          k = 0.1250 0.1250 0.4583 (  5536 PWs)   bands (ev):

   -64.2820 -64.2805 -64.2765 -64.2760 -31.0952 -31.0950 -31.0853 -31.0800
   -31.0797 -31.0775 -31.0602 -31.0602 -31.0514 -31.0510 -31.0475 -31.0466
    -8.3788  -8.1888  -7.5604  -7.5603   4.7111   4.7111   5.0302   5.4020
     5.4505   5.4505   6.6647   6.6650   7.1278   7.2775   7.3681   7.4374

          k = 0.1250 0.2083 0.2083 (  5516 PWs)   bands (ev):

   -64.2848 -64.2772 -64.2769 -64.2761 -31.1007 -31.1005 -31.1004 -31.0743
   -31.0674 -31.0673 -31.0609 -31.0587 -31.0586 -31.0584 -31.0402 -31.0379
    -8.7700  -7.6869  -7.6868  -7.5936   4.3654   4.3655   4.3919   5.8602
     6.2835   6.2837   6.3575   6.9043   6.9044   6.9172   7.7942   7.9013

          k = 0.1250 0.2083 0.2917 (  5518 PWs)   bands (ev):

   -64.2839 -64.2779 -64.2770 -64.2762 -31.1001 -31.0992 -31.0985 -31.0767
   -31.0699 -31.0683 -31.0626 -31.0579 -31.0570 -31.0561 -31.0425 -31.0388
    -8.6419  -7.8090  -7.6583  -7.5864   4.4113   4.4595   4.4719   5.6564
     5.9441   6.0641   6.5092   6.8738   6.9382   7.0135   7.6536   7.8196

          k = 0.1250 0.2083 0.3750 (  5525 PWs)   bands (ev):

   -64.2828 -64.2790 -64.2769 -64.2763 -31.0995 -31.0985 -31.0948 -31.0778
   -31.0759 -31.0726 -31.0576 -31.0573 -31.0564 -31.0527 -31.0455 -31.0411
    -8.4853  -7.9608  -7.6296  -7.5842   4.4618   4.5312   4.6219   5.5374
     5.5471   5.8565   6.7620   6.8428   6.9112   7.1527   7.4750   7.6745

          k = 0.1250 0.2083 0.4583 (  5523 PWs)   bands (ev):

   -64.2816 -64.2802 -64.2769 -64.2763 -31.0989 -31.0984 -31.0897 -31.0832
   -31.0771 -31.0751 -31.0567 -31.0563 -31.0530 -31.0489 -31.0486 -31.0445
    -8.3112  -8.1321  -7.6057  -7.5901   4.5102   4.5417   4.8594   5.1687
     5.5608   5.6785   6.8391   6.8678   7.0196   7.2620   7.3168   7.4968

          k = 0.1250 0.2917 0.2917 (  5514 PWs)   bands (ev):

   -64.2831 -64.2779 -64.2775 -64.2764 -31.1000 -31.0998 -31.0995 -31.0774
   -31.0755 -31.0650 -31.0649 -31.0547 -31.0545 -31.0544 -31.0448 -31.0388
    -8.5225  -7.7657  -7.7656  -7.5939   4.4192   4.4193   4.4690   5.5599
     5.5736   6.3182   6.3185   7.0127   7.0128   7.0395   7.4976   7.7983

          k = 0.1250 0.2917 0.3750 (  5524 PWs)   bands (ev):

   -64.2821 -64.2787 -64.2775 -64.2766 -31.1009 -31.1006 -31.0980 -31.0826
   -31.0763 -31.0679 -31.0602 -31.0535 -31.0530 -31.0507 -31.0479 -31.0401
    -8.3774  -7.9005  -7.7184  -7.6099   4.3854   4.4339   4.5003   5.2173
     5.5877   6.1117   6.5817   7.0209   7.0783   7.1841   7.3040   7.7043

          k = 0.1250 0.2917 0.4583 (  5522 PWs)   bands (ev):

   -64.2810 -64.2798 -64.2774 -64.2767 -31.1014 -31.1012 -31.0945 -31.0893
   -31.0739 -31.0709 -31.0556 -31.0526 -31.0523 -31.0515 -31.0464 -31.0428
    -8.2175  -8.0546  -7.6737  -7.6366   4.3736   4.3926   4.6637   4.9068
     5.7163   5.9029   6.8390   7.0447   7.0717   7.0819   7.3720   7.5539

          k = 0.1250 0.3750 0.3750 (  5513 PWs)   bands (ev):

   -64.2812 -64.2786 -64.2782 -64.2770 -31.1021 -31.1007 -31.1005 -31.0892
   -31.0735 -31.0632 -31.0632 -31.0511 -31.0504 -31.0493 -31.0491 -31.0404
    -8.2476  -7.8320  -7.8319  -7.6484   4.3455   4.3902   4.3903   4.9149
     5.7196   6.3656   6.3659   7.0956   7.1874   7.2183   7.2184   7.6667

          k = 0.1250 0.3750 0.4583 (  5519 PWs)   bands (ev):

   -64.2803 -64.2793 -64.2780 -64.2773 -31.1028 -31.1023 -31.0985 -31.0947
   -31.0702 -31.0667 -31.0589 -31.0549 -31.0489 -31.0485 -31.0452 -31.0422
    -8.1061  -7.9641  -7.7629  -7.7001   4.3021   4.3183   4.4840   4.6631
     5.9109   6.1343   6.6171   6.8629   7.2381   7.2423   7.4074   7.5634

          k = 0.1250 0.4583 0.4583 (  5519 PWs)   bands (ev):

   -64.2796 -64.2789 -64.2786 -64.2777 -31.1030 -31.1016 -31.1014 -31.0989
   -31.0664 -31.0626 -31.0625 -31.0586 -31.0465 -31.0453 -31.0450 -31.0431
    -7.9868  -7.8695  -7.8694  -7.7792   4.2875   4.3515   4.3515   4.4706
     6.1351   6.3758   6.3761   6.6225   7.3498   7.4042   7.4042   7.5137

          k = 0.2083 0.2083 0.2083 (  5515 PWs)   bands (ev):

   -64.2842 -64.2772 -64.2772 -64.2764 -31.1014 -31.1011 -31.1011 -31.0689
   -31.0689 -31.0687 -31.0676 -31.0570 -31.0570 -31.0570 -31.0393 -31.0393
    -8.6834  -7.6709  -7.6708  -7.6708   4.3587   4.3587   4.3588   5.9997
     6.1115   6.1117   6.1117   6.9786   6.9786   6.9788   7.8224   7.8224

          k = 0.2083 0.2083 0.2917 (  5529 PWs)   bands (ev):

   -64.2834 -64.2779 -64.2772 -64.2765 -31.1022 -31.1020 -31.1009 -31.0750
   -31.0700 -31.0698 -31.0625 -31.0556 -31.0556 -31.0549 -31.0413 -31.0397
    -8.5614  -7.7824  -7.6524  -7.6523   4.3418   4.3418   4.3768   5.6088
     5.9835   5.9836   6.4166   7.0014   7.0016   7.0675   7.7136   7.7576

          k = 0.2083 0.2083 0.3750 (  5528 PWs)   bands (ev):

   -64.2823 -64.2789 -64.2772 -64.2766 -31.1030 -31.1028 -31.0987 -31.0824
   -31.0707 -31.0704 -31.0561 -31.0547 -31.0547 -31.0523 -31.0439 -31.0418
    -8.4129  -7.9220  -7.6362  -7.6361   4.3184   4.3184   4.4704   5.2339
     5.9114   5.9115   6.7423   6.9898   6.9900   7.1792   7.5846   7.5960

          k = 0.2083 0.2083 0.4583 (  5535 PWs)   bands (ev):

   -64.2812 -64.2800 -64.2772 -64.2766 -31.1035 -31.1034 -31.0949 -31.0892
   -31.0708 -31.0706 -31.0544 -31.0543 -31.0501 -31.0495 -31.0466 -31.0454
    -8.2488  -8.0811  -7.6269  -7.6268   4.3010   4.3011   4.6480   4.9067
     5.8835   5.8836   6.9729   6.9731   7.0633   7.3078   7.3561   7.4460

          k = 0.2083 0.2917 0.2917 (  5527 PWs)   bands (ev):

   -64.2826 -64.2779 -64.2776 -64.2768 -31.1043 -31.1035 -31.1033 -31.0824
   -31.0693 -31.0630 -31.0629 -31.0535 -31.0535 -31.0534 -31.0426 -31.0399
    -8.4485  -7.7486  -7.7485  -7.6482   4.2530   4.2772   4.2772   5.2463
     5.9668   6.3384   6.3386   7.0882   7.0935   7.0936   7.6171   7.7393

          k = 0.2083 0.2917 0.3750 (  5524 PWs)   bands (ev):

   -64.2817 -64.2787 -64.2777 -64.2769 -31.1061 -31.1055 -31.1027 -31.0894
   -31.0681 -31.0638 -31.0567 -31.0522 -31.0519 -31.0506 -31.0449 -31.0410
    -8.3121  -7.8708  -7.7135  -7.6501   4.1723   4.1873   4.3002   4.9073
     6.0113   6.2657   6.6880   7.1035   7.1254   7.2113   7.4669   7.6510

          k = 0.2083 0.2917 0.4583 (  5537 PWs)   bands (ev):

   -64.2807 -64.2796 -64.2776 -64.2770 -31.1070 -31.1068 -31.1002 -31.0957
   -31.0666 -31.0651 -31.0517 -31.0514 -31.0513 -31.0480 -31.0472 -31.0437
    -8.1628  -8.0120  -7.6831  -7.6614   4.1270   4.1322   4.4170   4.6236
     6.0927   6.1837   7.0059   7.1140   7.1266   7.2679   7.3511   7.5063

          k = 0.2083 0.3750 0.3750 (  5532 PWs)   bands (ev):

   -64.2810 -64.2786 -64.2782 -64.2772 -31.1084 -31.1063 -31.1061 -31.0960
   -31.0655 -31.0584 -31.0584 -31.0497 -31.0491 -31.0489 -31.0474 -31.0411
    -8.1916  -7.8139  -7.8138  -7.6745   4.0650   4.1507   4.1507   4.6082
     6.1462   6.5900   6.5902   7.2193   7.2445   7.2446   7.3071   7.6308

          k = 0.2083 0.3750 0.4583 (  5542 PWs)   bands (ev):

   -64.2801 -64.2792 -64.2781 -64.2774 -31.1092 -31.1084 -31.1047 -31.1013
   -31.0630 -31.0606 -31.0540 -31.0504 -31.0483 -31.0481 -31.0455 -31.0427
    -8.0615  -7.9324  -7.7586  -7.7109   4.0218   4.0520   4.2129   4.3696
     6.3004   6.4551   6.8725   7.1102   7.2644   7.2677   7.3979   7.5376

          k = 0.2083 0.4583 0.4583 (  5536 PWs)   bands (ev):

   -64.2795 -64.2789 -64.2787 -64.2778 -31.1094 -31.1080 -31.1079 -31.1054
   -31.0598 -31.0568 -31.0567 -31.0533 -31.0462 -31.0453 -31.0450 -31.0432
    -7.9544  -7.8509  -7.8508  -7.7750   4.0011   4.0676   4.0676   4.1773
     6.5049   6.6994   6.6997   6.9186   7.3612   7.4058   7.4058   7.5020

          k = 0.2917 0.2917 0.2917 (  5542 PWs)   bands (ev):

   -64.2820 -64.2779 -64.2779 -64.2771 -31.1072 -31.1069 -31.1069 -31.0897
   -31.0616 -31.0616 -31.0613 -31.0520 -31.0520 -31.0520 -31.0415 -31.0415
    -8.3454  -7.7287  -7.7286  -7.7286   4.1230   4.1231   4.1231   4.8987
     6.3776   6.3778   6.3778   7.1580   7.1580   7.1582   7.6573   7.6573

          k = 0.2917 0.2917 0.3750 (  5540 PWs)   bands (ev):

   -64.2812 -64.2786 -64.2779 -64.2772 -31.1099 -31.1097 -31.1076 -31.0966
   -31.0606 -31.0604 -31.0544 -31.0505 -31.0505 -31.0500 -31.0434 -31.0420
    -8.2219  -7.8327  -7.7113  -7.7112   3.9969   3.9970   4.0916   4.5825
     6.4227   6.4228   6.7693   7.1934   7.1936   7.2458   7.5594   7.5845

          k = 0.2917 0.2917 0.4583 (  5542 PWs)   bands (ev):

   -64.2803 -64.2794 -64.2779 -64.2773 -31.1115 -31.1113 -31.1058 -31.1022
   -31.0602 -31.0599 -31.0497 -31.0496 -31.0485 -31.0478 -31.0456 -31.0445
    -8.0882  -7.9552  -7.7013  -7.7012   3.9268   3.9269   4.1621   4.3299
     6.4531   6.4531   7.1181   7.2059   7.2061   7.3462   7.3983   7.4530

          k = 0.2917 0.3750 0.3750 (  5540 PWs)   bands (ev):

   -64.2806 -64.2786 -64.2783 -64.2775 -31.1127 -31.1115 -31.1113 -31.1030
   -31.0580 -31.0542 -31.0541 -31.0487 -31.0485 -31.0484 -31.0446 -31.0421
    -8.1152  -7.7929  -7.7928  -7.7161   3.8580   3.9205   3.9206   4.2949
     6.5652   6.7967   6.7968   7.2650   7.2808   7.2809   7.4668   7.5806

          k = 0.2917 0.3750 0.4583 (  5549 PWs)   bands (ev):

   -64.2799 -64.2791 -64.2783 -64.2776 -31.1142 -31.1137 -31.1107 -31.1079
   -31.0563 -31.0549 -31.0496 -31.0476 -31.0475 -31.0468 -31.0460 -31.0434
    -8.0019  -7.8917  -7.7574  -7.7311   3.7945   3.8163   3.9481   4.0767
     6.6830   6.7648   7.1050   7.3023   7.3045   7.3237   7.3857   7.4999

          k = 0.2917 0.4583 0.4583 (  5548 PWs)   bands (ev):

   -64.2794 -64.2789 -64.2787 -64.2778 -31.1151 -31.1140 -31.1138 -31.1119
   -31.0535 -31.0513 -31.0512 -31.0487 -31.0459 -31.0453 -31.0451 -31.0435
    -7.9128  -7.8292  -7.8291  -7.7742   3.7525   3.8057   3.8058   3.8956
     6.8681   7.0100   7.0102   7.1912   7.3774   7.4078   7.4079   7.4855

          k = 0.3750 0.3750 0.3750 (  5559 PWs)   bands (ev):

   -64.2801 -64.2786 -64.2786 -64.2777 -31.1155 -31.1152 -31.1152 -31.1092
   -31.0518 -31.0518 -31.0515 -31.0476 -31.0475 -31.0475 -31.0434 -31.0434
    -8.0267  -7.7745  -7.7744  -7.7744   3.7460   3.7461   3.7461   4.0269
     6.9415   6.9417   6.9417   7.3214   7.3214   7.3216   7.5200   7.5200

          k = 0.3750 0.3750 0.4583 (  5556 PWs)   bands (ev):

   -64.2796 -64.2790 -64.2786 -64.2778 -31.1174 -31.1172 -31.1155 -31.1133
   -31.0510 -31.0507 -31.0471 -31.0465 -31.0465 -31.0462 -31.0447 -31.0442
    -7.9350  -7.8487  -7.7638  -7.7637   3.6528   3.6529   3.7385   3.8352
     7.0115   7.0116   7.2444   7.3509   7.3511   7.3856   7.4443   7.4534

          k = 0.3750 0.4583 0.4583 (  5550 PWs)   bands (ev):

   -64.2792 -64.2789 -64.2788 -64.2779 -31.1190 -31.1183 -31.1182 -31.1170
   -31.0485 -31.0473 -31.0473 -31.0457 -31.0455 -31.0452 -31.0450 -31.0440
    -7.8688  -7.8102  -7.8101  -7.7811   3.5820   3.6116   3.6117   3.6746
     7.1697   7.2481   7.2482   7.3782   7.3972   7.4108   7.4108   7.4652

          k = 0.4583 0.4583 0.4583 (  5538 PWs)   bands (ev):

   -64.2791 -64.2789 -64.2789 -64.2779 -31.1206 -31.1203 -31.1203 -31.1199
   -31.0455 -31.0455 -31.0452 -31.0450 -31.0450 -31.0450 -31.0445 -31.0445
    -7.8292  -7.7992  -7.7991  -7.7991   3.5092   3.5092   3.5092   3.5411
     7.3702   7.3704   7.3704   7.4195   7.4195   7.4197   7.4427   7.4427

     highest occupied level (ev):     8.0603

!    total energy              =    -608.40428354 Ry
     Harris-Foulkes estimate   =    -608.40428355 Ry
     estimated scf accuracy    <          3.0E-09 Ry

     The total energy is the sum of the following terms:

     one-electron contribution =    -297.12679105 Ry
     hartree contribution      =     165.96427869 Ry
     xc contribution           =     -97.98929550 Ry
     ewald contribution        =    -379.25247568 Ry

     convergence has been achieved in   9 iterations

     Forces acting on atoms (cartesian axes, Ry/au):

     atom    1 type  1   force =     0.00000000    0.00000000    0.00000000
     atom    2 type  1   force =     0.00000000    0.00000000    0.00000000
     atom    3 type  1   force =     0.00000000    0.00000000   -0.00000000
     atom    4 type  1   force =     0.00000000    0.00000000   -0.00000000
     atom    5 type  2   force =     0.00000000   -0.00000000    0.00000000
     atom    6 type  2   force =     0.00000000    0.00000000    0.00000000
     atom    7 type  2   force =     0.00000000    0.00000000    0.00000000
     atom    8 type  2   force =     0.00000000   -0.00000000    0.00000000

     Total force =     0.000000     Total SCF correction =     0.000000

     Writing output data file MgO_121212_shift.save/
 
     init_run     :      0.87s CPU      0.93s WALL (       1 calls)
     electrons    :     19.97s CPU     20.68s WALL (       1 calls)
     forces       :      0.19s CPU      0.20s WALL (       1 calls)

     Called by init_run:
     wfcinit      :      0.80s CPU      0.83s WALL (       1 calls)
     potinit      :      0.02s CPU      0.04s WALL (       1 calls)
     hinit0       :      0.02s CPU      0.03s WALL (       1 calls)

     Called by electrons:
     c_bands      :     17.61s CPU     18.12s WALL (       9 calls)
     sum_band     :      2.30s CPU      2.42s WALL (       9 calls)
     v_of_rho     :      0.05s CPU      0.05s WALL (      10 calls)
     mix_rho      :      0.01s CPU      0.01s WALL (       9 calls)

     Called by c_bands:
     init_us_2    :      0.22s CPU      0.23s WALL (    1120 calls)
     cegterg      :     16.74s CPU     17.22s WALL (     504 calls)

     Called by sum_band:

     Called by *egterg:
     h_psi        :     12.37s CPU     12.84s WALL (    1582 calls)
     g_psi        :      0.07s CPU      0.07s WALL (    1022 calls)
     cdiaghg      :      3.11s CPU      3.13s WALL (    1526 calls)

     Called by h_psi:
     h_psi:pot    :     12.30s CPU     12.77s WALL (    1582 calls)
     h_psi:calbec :      0.75s CPU      0.77s WALL (    1582 calls)
     vloc_psi     :     10.88s CPU     11.31s WALL (    1582 calls)
     add_vuspsi   :      0.67s CPU      0.68s WALL (    1582 calls)

     General routines
     calbec       :      0.85s CPU      0.87s WALL (    1806 calls)
     fft          :      0.03s CPU      0.03s WALL (     110 calls)
     ffts         :      0.00s CPU      0.00s WALL (       9 calls)
     fftw         :     12.08s CPU     12.58s WALL (  102730 calls)
 
     Parallel routines
     fft_scatt_xy :      1.25s CPU      1.30s WALL (  102849 calls)
     fft_scatt_yz :      5.87s CPU      6.15s WALL (  102849 calls)
 
     PWSCF        :     21.53s CPU     26.47s WALL

 
   This run was terminated on:  18: 1:13   9Sep2020            

=------------------------------------------------------------------------------=
   JOB DONE.
=------------------------------------------------------------------------------=
Starting epilogue... Wed Sep  9 18:01:14 CEST 2020
=== JOB_STATISTICS ===
=== current date     : Wed Sep  9 18:01:14 CEST 2020
= Job-ID             : 1346735.eadm
= Job-Name           : MoS2.phon
= Queue              : devel
= PBS_O_WORKDIR      : /home/hpc/rzku/phyv025h/Exercise_sheet_1/Exercise_1
= Requested resources: ncpus=1,neednodes=2:ppn=40,nodes=2:ppn=40,walltime=01:00:00
= Used resources     : cput=00:20:39,mem=1321616kb,vmem=10946912kb,walltime=00:01:10
= Node list          : e0104,e0103
= AccessKey          : 7926be62
======================
Power management available, setting all CPUs to ondemand govenor
End of epilogue: Wed Sep  9 18:01:14 CEST 2020
