Starting prologue... Wed Sep 9 18:00:56 CEST 2020
Master node: e0108
Kill all process from other users
Adjust oom killer config
Clearing buffers and caches on the nodes.
Power management available, enabling ondemand governor
End of prologue: Wed Sep  9 18:01:02 CEST 2020
/home/hpc/rzku/phyv025h/Exercise_sheet_1/Exercise_1

     Program PWSCF v.6.4.1 starts on  9Sep2020 at 18: 1:13 

     This program is part of the open-source Quantum ESPRESSO suite
     for quantum simulation of materials; please cite
         "P. Giannozzi et al., J. Phys.:Condens. Matter 21 395502 (2009);
         "P. Giannozzi et al., J. Phys.:Condens. Matter 29 465901 (2017);
          URL http://www.quantum-espresso.org", 
     in publications or presentations arising from this work. More details at
     http://www.quantum-espresso.org/quote

     Parallel version (MPI & OpenMP), running on      20 processor cores
     Number of MPI processes:                20
     Threads/MPI process:                     1

     MPI processes distributed on     1 nodes
     R & G space division:  proc/nbgrp/npool/nimage =      20
     Reading input from /home/hpc/rzku/phyv025h/Exercise_sheet_1/Exercise_1/1_d/MgO_045_4.in

     Current dimensions of program PWSCF are:
     Max number of different atomic species (ntypx) = 10
     Max number of k-points (npk) =  40000
     Max angular momentum in pseudopotentials (lmaxx) =  3

     IMPORTANT: XC functional enforced from input :
     Exchange-correlation      = PBE ( 1  4  3  4 0 0)
     Any further DFT definition will be discarded
     Please, verify this is what you really want


     Subspace diagonalization in iterative solution of the eigenvalue problem:
     a serial algorithm will be used

     Found symmetry operation: I + ( -0.5000 -0.5000  0.0000)
     This is a supercell, fractional translations are disabled
     Message from routine setup:
     DEPRECATED: symmetry with ibrav=0, use correct ibrav instead
 
     Parallelization info
     --------------------
     sticks:   dense  smooth     PW     G-vecs:    dense   smooth      PW
     Min          44      44     13                 1018     1018     155
     Max          46      46     14                 1021     1021     157
     Sum         889     889    261                20377    20377    3119
 


     bravais-lattice index     =            0
     lattice parameter (alat)  =       7.9557  a.u.
     unit-cell volume          =     503.5503 (a.u.)^3
     number of atoms/cell      =            8
     number of atomic types    =            2
     number of electrons       =        64.00
     number of Kohn-Sham states=           32
     kinetic-energy cutoff     =      45.0000  Ry
     charge density cutoff     =     180.0000  Ry
     convergence threshold     =      1.0E-08
     mixing beta               =       0.7000
     number of iterations used =            8  plain     mixing
     Exchange-correlation      = PBE ( 1  4  3  4 0 0)

     celldm(1)=   7.955747  celldm(2)=   0.000000  celldm(3)=   0.000000
     celldm(4)=   0.000000  celldm(5)=   0.000000  celldm(6)=   0.000000

     crystal axes: (cart. coord. in units of alat)
               a(1) = (   1.000000   0.000000   0.000000 )  
               a(2) = (   0.000000   1.000000   0.000000 )  
               a(3) = (   0.000000   0.000000   1.000000 )  

     reciprocal axes: (cart. coord. in units 2 pi/alat)
               b(1) = (  1.000000  0.000000  0.000000 )  
               b(2) = (  0.000000  1.000000  0.000000 )  
               b(3) = (  0.000000  0.000000  1.000000 )  


     PseudoPot. # 1 for Mg read from file:
     ./Mg.uspp.UPF
     MD5 check sum: 8ffbd8f729fef71095aac5bd8316fb1f
     Pseudo is Ultrasoft, Zval = 10.0
     Generated by new atomic code, or converted to UPF format
     Using radial grid of  821 points,  7 beta functions with: 
                l(1) =   0
                l(2) =   0
                l(3) =   0
                l(4) =   1
                l(5) =   1
                l(6) =   2
                l(7) =   2
     Q(r) pseudized with  8 coefficients,  rinner =    1.200   1.200   1.200
                                                       1.200   1.200

     PseudoPot. # 2 for O  read from file:
     ./O.uspp.UPF
     MD5 check sum: 734c27235a0248c51dbae37a1fbe46ec
     Pseudo is Ultrasoft + core correction, Zval =  6.0
     Generated by new atomic code, or converted to UPF format
     Using radial grid of  737 points,  5 beta functions with: 
                l(1) =   0
                l(2) =   0
                l(3) =   1
                l(4) =   1
                l(5) =   2
     Q(r) pseudized with  8 coefficients,  rinner =    0.900   0.900   0.900
                                                       0.900   0.900

     atomic species   valence    mass     pseudopotential
        Mg            10.00    24.30500     Mg( 1.00)
        O              6.00    15.99900     O ( 1.00)

     48 Sym. Ops., with inversion, found



   Cartesian axes

     site n.     atom                  positions (alat units)
         1           Mg  tau(   1) = (   0.0000000   0.0000000   0.0000000  )
         2           Mg  tau(   2) = (   0.5000000   0.5000000   0.0000000  )
         3           Mg  tau(   3) = (   0.5000000   0.0000000   0.5000000  )
         4           Mg  tau(   4) = (   0.0000000   0.5000000   0.5000000  )
         5           O   tau(   5) = (   0.5000000   0.0000000   0.0000000  )
         6           O   tau(   6) = (   0.0000000   0.5000000   0.0000000  )
         7           O   tau(   7) = (   0.0000000   0.0000000   0.5000000  )
         8           O   tau(   8) = (   0.5000000   0.5000000   0.5000000  )

     number of k points=     4
                       cart. coord. in units 2pi/alat
        k(    1) = (   0.0000000   0.0000000   0.0000000), wk =   0.0740741
        k(    2) = (   0.0000000   0.0000000   0.3333333), wk =   0.4444444
        k(    3) = (   0.0000000   0.3333333   0.3333333), wk =   0.8888889
        k(    4) = (   0.3333333   0.3333333   0.3333333), wk =   0.5925926

     Dense  grid:    20377 G-vectors     FFT dimensions: (  36,  36,  36)

     Estimated max dynamical RAM per process >       8.40 MB

     Estimated total dynamical RAM >     168.07 MB

     Check: negative core charge=   -0.000005

     Initial potential from superposition of free atoms

     starting charge   62.79908, renormalised to   64.00000
     Starting wfcs are   36 randomized atomic wfcs

     total cpu time spent up to now is        0.6 secs

     Self-consistent Calculation

     iteration #  1     ecut=    45.00 Ry     beta= 0.70
     Davidson diagonalization with overlap
     ethr =  1.00E-02,  avg # of iterations =  2.0

     total cpu time spent up to now is        0.8 secs

     total energy              =    -630.82574183 Ry
     Harris-Foulkes estimate   =    -632.00909838 Ry
     estimated scf accuracy    <       1.54211331 Ry

     iteration #  2     ecut=    45.00 Ry     beta= 0.70
     Davidson diagonalization with overlap
     ethr =  2.41E-03,  avg # of iterations =  2.8

     total cpu time spent up to now is        1.0 secs

     total energy              =    -631.21094731 Ry
     Harris-Foulkes estimate   =    -631.88537115 Ry
     estimated scf accuracy    <       1.40020358 Ry

     iteration #  3     ecut=    45.00 Ry     beta= 0.70
     Davidson diagonalization with overlap
     ethr =  2.19E-03,  avg # of iterations =  2.0

     total cpu time spent up to now is        1.1 secs

     total energy              =    -631.48951780 Ry
     Harris-Foulkes estimate   =    -631.49302769 Ry
     estimated scf accuracy    <       0.01067441 Ry

     iteration #  4     ecut=    45.00 Ry     beta= 0.70
     Davidson diagonalization with overlap
     ethr =  1.67E-05,  avg # of iterations =  2.0

     total cpu time spent up to now is        1.2 secs

     total energy              =    -631.49102547 Ry
     Harris-Foulkes estimate   =    -631.49102867 Ry
     estimated scf accuracy    <       0.00039837 Ry

     iteration #  5     ecut=    45.00 Ry     beta= 0.70
     Davidson diagonalization with overlap
     ethr =  6.22E-07,  avg # of iterations =  2.0

     total cpu time spent up to now is        1.4 secs

     total energy              =    -631.49105670 Ry
     Harris-Foulkes estimate   =    -631.49105601 Ry
     estimated scf accuracy    <       0.00000515 Ry

     iteration #  6     ecut=    45.00 Ry     beta= 0.70
     Davidson diagonalization with overlap
     ethr =  8.05E-09,  avg # of iterations =  2.2

     total cpu time spent up to now is        1.5 secs

     total energy              =    -631.49105743 Ry
     Harris-Foulkes estimate   =    -631.49105801 Ry
     estimated scf accuracy    <       0.00000167 Ry

     iteration #  7     ecut=    45.00 Ry     beta= 0.70
     Davidson diagonalization with overlap
     ethr =  2.61E-09,  avg # of iterations =  2.8

     total cpu time spent up to now is        1.6 secs

     total energy              =    -631.49105770 Ry
     Harris-Foulkes estimate   =    -631.49105777 Ry
     estimated scf accuracy    <       0.00000025 Ry

     iteration #  8     ecut=    45.00 Ry     beta= 0.70
     Davidson diagonalization with overlap
     ethr =  3.92E-10,  avg # of iterations =  2.0

     total cpu time spent up to now is        1.7 secs

     End of self-consistent calculation

          k = 0.0000 0.0000 0.0000 (  2553 PWs)   bands (ev):

   -64.4652 -64.4535 -64.4535 -64.4535 -31.2828 -31.2828 -31.2828 -31.2383
   -31.2383 -31.2383 -31.2383 -31.2383 -31.2383 -31.2095 -31.2095 -31.2095
    -9.3819  -7.8363  -7.8363  -7.8363   3.7813   3.7813   3.7813   6.4998
     6.4998   6.4998   6.4999   6.4999   6.4999   7.8425   7.8425   7.8425

          k = 0.0000 0.0000 0.3333 (  2601 PWs)   bands (ev):

   -64.4623 -64.4565 -64.4535 -64.4535 -31.2717 -31.2717 -31.2662 -31.2494
   -31.2494 -31.2398 -31.2398 -31.2311 -31.2311 -31.2295 -31.2167 -31.2167
    -9.0019  -8.2272  -7.7880  -7.7880   4.3030   4.3030   4.4172   5.6122
     5.6122   6.1758   6.1759   6.2603   6.7915   6.7915   7.4566   7.4566

          k = 0.0000 0.3333 0.3333 (  2562 PWs)   bands (ev):

   -64.4601 -64.4557 -64.4557 -64.4543 -31.2708 -31.2708 -31.2658 -31.2615
   -31.2516 -31.2412 -31.2412 -31.2268 -31.2257 -31.2257 -31.2248 -31.2123
    -8.6817  -8.0696  -8.0695  -7.8466   4.3120   4.3121   4.6251   4.7934
     5.2216   6.0009   6.0010   6.8281   6.8281   6.8457   6.9096   7.5254

          k = 0.3333 0.3333 0.3333 (  2542 PWs)   bands (ev):

   -64.4586 -64.4557 -64.4557 -64.4557 -31.2859 -31.2859 -31.2859 -31.2745
   -31.2301 -31.2300 -31.2300 -31.2231 -31.2231 -31.2231 -31.2158 -31.2158
    -8.4334  -8.0096  -8.0096  -8.0095   3.6793   3.6793   3.6793   4.1761
     6.4080   6.4080   6.4080   7.0035   7.0036   7.0036   7.3428   7.3428

     highest occupied level (ev):     7.8425

!    total energy              =    -631.49105771 Ry
     Harris-Foulkes estimate   =    -631.49105772 Ry
     estimated scf accuracy    <          8.3E-09 Ry

     The total energy is the sum of the following terms:

     one-electron contribution =    -347.35407544 Ry
     hartree contribution      =     193.09202396 Ry
     xc contribution           =     -97.97653055 Ry
     ewald contribution        =    -379.25247569 Ry

     convergence has been achieved in   8 iterations

     Forces acting on atoms (cartesian axes, Ry/au):

     atom    1 type  1   force =     0.00000000    0.00000000    0.00000000
     atom    2 type  1   force =     0.00000000    0.00000000    0.00000000
     atom    3 type  1   force =     0.00000000    0.00000000    0.00000000
     atom    4 type  1   force =     0.00000000   -0.00000000    0.00000000
     atom    5 type  2   force =     0.00000000    0.00000000    0.00000000
     atom    6 type  2   force =     0.00000000    0.00000000    0.00000000
     atom    7 type  2   force =     0.00000000    0.00000000    0.00000000
     atom    8 type  2   force =     0.00000000    0.00000000    0.00000000

     Total force =     0.000000     Total SCF correction =     0.000000

     Writing output data file MgO_045_4.save/
 
     init_run     :      0.09s CPU      0.20s WALL (       1 calls)
     electrons    :      0.98s CPU      1.14s WALL (       1 calls)
     forces       :      0.03s CPU      0.03s WALL (       1 calls)

     Called by init_run:
     wfcinit      :      0.03s CPU      0.05s WALL (       1 calls)
     potinit      :      0.01s CPU      0.01s WALL (       1 calls)
     hinit0       :      0.04s CPU      0.11s WALL (       1 calls)

     Called by electrons:
     c_bands      :      0.74s CPU      0.86s WALL (       8 calls)
     sum_band     :      0.16s CPU      0.17s WALL (       8 calls)
     v_of_rho     :      0.02s CPU      0.02s WALL (       9 calls)
     newd         :      0.05s CPU      0.06s WALL (       9 calls)
     mix_rho      :      0.00s CPU      0.01s WALL (       8 calls)

     Called by c_bands:
     init_us_2    :      0.01s CPU      0.01s WALL (      72 calls)
     cegterg      :      0.69s CPU      0.80s WALL (      32 calls)

     Called by sum_band:
     sum_band:bec :      0.00s CPU      0.00s WALL (      32 calls)
     addusdens    :      0.05s CPU      0.06s WALL (       8 calls)

     Called by *egterg:
     h_psi        :      0.42s CPU      0.51s WALL (     107 calls)
     s_psi        :      0.03s CPU      0.03s WALL (     107 calls)
     g_psi        :      0.00s CPU      0.00s WALL (      71 calls)
     cdiaghg      :      0.20s CPU      0.22s WALL (     103 calls)

     Called by h_psi:
     h_psi:pot    :      0.42s CPU      0.51s WALL (     107 calls)
     h_psi:calbec :      0.04s CPU      0.04s WALL (     107 calls)
     vloc_psi     :      0.36s CPU      0.44s WALL (     107 calls)
     add_vuspsi   :      0.03s CPU      0.03s WALL (     107 calls)

     General routines
     calbec       :      0.06s CPU      0.06s WALL (     155 calls)
     fft          :      0.01s CPU      0.07s WALL (     110 calls)
     ffts         :      0.00s CPU      0.00s WALL (       8 calls)
     fftw         :      0.40s CPU      0.49s WALL (    6424 calls)
 
     Parallel routines
     fft_scatt_xy :      0.04s CPU      0.04s WALL (    6542 calls)
     fft_scatt_yz :      0.25s CPU      0.31s WALL (    6542 calls)
 
     PWSCF        :      1.24s CPU      2.12s WALL

 
   This run was terminated on:  18: 1:16   9Sep2020            

=------------------------------------------------------------------------------=
   JOB DONE.
=------------------------------------------------------------------------------=

     Program PWSCF v.6.4.1 starts on  9Sep2020 at 18: 1:16 

     This program is part of the open-source Quantum ESPRESSO suite
     for quantum simulation of materials; please cite
         "P. Giannozzi et al., J. Phys.:Condens. Matter 21 395502 (2009);
         "P. Giannozzi et al., J. Phys.:Condens. Matter 29 465901 (2017);
          URL http://www.quantum-espresso.org", 
     in publications or presentations arising from this work. More details at
     http://www.quantum-espresso.org/quote

     Parallel version (MPI & OpenMP), running on      20 processor cores
     Number of MPI processes:                20
     Threads/MPI process:                     1

     MPI processes distributed on     1 nodes
     R & G space division:  proc/nbgrp/npool/nimage =      20
     Reading input from /home/hpc/rzku/phyv025h/Exercise_sheet_1/Exercise_1/1_d/MgO_045_5.in

     Current dimensions of program PWSCF are:
     Max number of different atomic species (ntypx) = 10
     Max number of k-points (npk) =  40000
     Max angular momentum in pseudopotentials (lmaxx) =  3

     IMPORTANT: XC functional enforced from input :
     Exchange-correlation      = PBE ( 1  4  3  4 0 0)
     Any further DFT definition will be discarded
     Please, verify this is what you really want


     Subspace diagonalization in iterative solution of the eigenvalue problem:
     a serial algorithm will be used

     Found symmetry operation: I + ( -0.5000 -0.5000  0.0000)
     This is a supercell, fractional translations are disabled
     Message from routine setup:
     DEPRECATED: symmetry with ibrav=0, use correct ibrav instead
 
     Parallelization info
     --------------------
     sticks:   dense  smooth     PW     G-vecs:    dense   smooth      PW
     Min          56      44     13                 1425     1018     155
     Max          58      46     14                 1428     1021     157
     Sum        1125     889    261                28545    20377    3119
 


     bravais-lattice index     =            0
     lattice parameter (alat)  =       7.9557  a.u.
     unit-cell volume          =     503.5503 (a.u.)^3
     number of atoms/cell      =            8
     number of atomic types    =            2
     number of electrons       =        64.00
     number of Kohn-Sham states=           32
     kinetic-energy cutoff     =      45.0000  Ry
     charge density cutoff     =     225.0000  Ry
     convergence threshold     =      1.0E-08
     mixing beta               =       0.7000
     number of iterations used =            8  plain     mixing
     Exchange-correlation      = PBE ( 1  4  3  4 0 0)

     celldm(1)=   7.955747  celldm(2)=   0.000000  celldm(3)=   0.000000
     celldm(4)=   0.000000  celldm(5)=   0.000000  celldm(6)=   0.000000

     crystal axes: (cart. coord. in units of alat)
               a(1) = (   1.000000   0.000000   0.000000 )  
               a(2) = (   0.000000   1.000000   0.000000 )  
               a(3) = (   0.000000   0.000000   1.000000 )  

     reciprocal axes: (cart. coord. in units 2 pi/alat)
               b(1) = (  1.000000  0.000000  0.000000 )  
               b(2) = (  0.000000  1.000000  0.000000 )  
               b(3) = (  0.000000  0.000000  1.000000 )  


     PseudoPot. # 1 for Mg read from file:
     ./Mg.uspp.UPF
     MD5 check sum: 8ffbd8f729fef71095aac5bd8316fb1f
     Pseudo is Ultrasoft, Zval = 10.0
     Generated by new atomic code, or converted to UPF format
     Using radial grid of  821 points,  7 beta functions with: 
                l(1) =   0
                l(2) =   0
                l(3) =   0
                l(4) =   1
                l(5) =   1
                l(6) =   2
                l(7) =   2
     Q(r) pseudized with  8 coefficients,  rinner =    1.200   1.200   1.200
                                                       1.200   1.200

     PseudoPot. # 2 for O  read from file:
     ./O.uspp.UPF
     MD5 check sum: 734c27235a0248c51dbae37a1fbe46ec
     Pseudo is Ultrasoft + core correction, Zval =  6.0
     Generated by new atomic code, or converted to UPF format
     Using radial grid of  737 points,  5 beta functions with: 
                l(1) =   0
                l(2) =   0
                l(3) =   1
                l(4) =   1
                l(5) =   2
     Q(r) pseudized with  8 coefficients,  rinner =    0.900   0.900   0.900
                                                       0.900   0.900

     atomic species   valence    mass     pseudopotential
        Mg            10.00    24.30500     Mg( 1.00)
        O              6.00    15.99900     O ( 1.00)

     48 Sym. Ops., with inversion, found



   Cartesian axes

     site n.     atom                  positions (alat units)
         1           Mg  tau(   1) = (   0.0000000   0.0000000   0.0000000  )
         2           Mg  tau(   2) = (   0.5000000   0.5000000   0.0000000  )
         3           Mg  tau(   3) = (   0.5000000   0.0000000   0.5000000  )
         4           Mg  tau(   4) = (   0.0000000   0.5000000   0.5000000  )
         5           O   tau(   5) = (   0.5000000   0.0000000   0.0000000  )
         6           O   tau(   6) = (   0.0000000   0.5000000   0.0000000  )
         7           O   tau(   7) = (   0.0000000   0.0000000   0.5000000  )
         8           O   tau(   8) = (   0.5000000   0.5000000   0.5000000  )

     number of k points=     4
                       cart. coord. in units 2pi/alat
        k(    1) = (   0.0000000   0.0000000   0.0000000), wk =   0.0740741
        k(    2) = (   0.0000000   0.0000000   0.3333333), wk =   0.4444444
        k(    3) = (   0.0000000   0.3333333   0.3333333), wk =   0.8888889
        k(    4) = (   0.3333333   0.3333333   0.3333333), wk =   0.5925926

     Dense  grid:    28545 G-vectors     FFT dimensions: (  40,  40,  40)

     Smooth grid:    20377 G-vectors     FFT dimensions: (  36,  36,  36)

     Estimated max dynamical RAM per process >      10.47 MB

     Estimated total dynamical RAM >     209.47 MB

     Check: negative core charge=   -0.000003

     Initial potential from superposition of free atoms

     starting charge   62.79908, renormalised to   64.00000
     Starting wfcs are   36 randomized atomic wfcs

     total cpu time spent up to now is        0.2 secs

     Self-consistent Calculation

     iteration #  1     ecut=    45.00 Ry     beta= 0.70
     Davidson diagonalization with overlap
     ethr =  1.00E-02,  avg # of iterations =  2.0

     total cpu time spent up to now is        0.4 secs

     total energy              =    -630.82580901 Ry
     Harris-Foulkes estimate   =    -632.00910953 Ry
     estimated scf accuracy    <       1.54209070 Ry

     iteration #  2     ecut=    45.00 Ry     beta= 0.70
     Davidson diagonalization with overlap
     ethr =  2.41E-03,  avg # of iterations =  2.8

     total cpu time spent up to now is        0.6 secs

     total energy              =    -631.21099945 Ry
     Harris-Foulkes estimate   =    -631.88558720 Ry
     estimated scf accuracy    <       1.40038528 Ry

     iteration #  3     ecut=    45.00 Ry     beta= 0.70
     Davidson diagonalization with overlap
     ethr =  2.19E-03,  avg # of iterations =  2.0

     total cpu time spent up to now is        0.7 secs

     total energy              =    -631.48964807 Ry
     Harris-Foulkes estimate   =    -631.49316333 Ry
     estimated scf accuracy    <       0.01068297 Ry

     iteration #  4     ecut=    45.00 Ry     beta= 0.70
     Davidson diagonalization with overlap
     ethr =  1.67E-05,  avg # of iterations =  2.0

     total cpu time spent up to now is        0.9 secs

     total energy              =    -631.49115376 Ry
     Harris-Foulkes estimate   =    -631.49115819 Ry
     estimated scf accuracy    <       0.00039850 Ry

     iteration #  5     ecut=    45.00 Ry     beta= 0.70
     Davidson diagonalization with overlap
     ethr =  6.23E-07,  avg # of iterations =  2.0

     total cpu time spent up to now is        1.0 secs

     total energy              =    -631.49118463 Ry
     Harris-Foulkes estimate   =    -631.49118398 Ry
     estimated scf accuracy    <       0.00000512 Ry

     iteration #  6     ecut=    45.00 Ry     beta= 0.70
     Davidson diagonalization with overlap
     ethr =  8.00E-09,  avg # of iterations =  2.2

     total cpu time spent up to now is        1.2 secs

     total energy              =    -631.49118534 Ry
     Harris-Foulkes estimate   =    -631.49118592 Ry
     estimated scf accuracy    <       0.00000167 Ry

     iteration #  7     ecut=    45.00 Ry     beta= 0.70
     Davidson diagonalization with overlap
     ethr =  2.61E-09,  avg # of iterations =  2.8

     total cpu time spent up to now is        1.3 secs

     total energy              =    -631.49118561 Ry
     Harris-Foulkes estimate   =    -631.49118568 Ry
     estimated scf accuracy    <       0.00000025 Ry

     iteration #  8     ecut=    45.00 Ry     beta= 0.70
     Davidson diagonalization with overlap
     ethr =  3.87E-10,  avg # of iterations =  2.0

     total cpu time spent up to now is        1.4 secs

     End of self-consistent calculation

          k = 0.0000 0.0000 0.0000 (  2553 PWs)   bands (ev):

   -64.4652 -64.4536 -64.4536 -64.4536 -31.2828 -31.2828 -31.2828 -31.2383
   -31.2383 -31.2383 -31.2383 -31.2383 -31.2383 -31.2095 -31.2095 -31.2095
    -9.3818  -7.8363  -7.8363  -7.8362   3.7814   3.7814   3.7814   6.4999
     6.4999   6.4999   6.5000   6.5000   6.5000   7.8426   7.8426   7.8426

          k = 0.0000 0.0000 0.3333 (  2601 PWs)   bands (ev):

   -64.4623 -64.4565 -64.4536 -64.4536 -31.2717 -31.2717 -31.2662 -31.2494
   -31.2494 -31.2398 -31.2398 -31.2311 -31.2311 -31.2295 -31.2167 -31.2167
    -9.0018  -8.2271  -7.7879  -7.7879   4.3031   4.3031   4.4173   5.6123
     5.6123   6.1760   6.1760   6.2605   6.7916   6.7916   7.4567   7.4567

          k = 0.0000 0.3333 0.3333 (  2562 PWs)   bands (ev):

   -64.4601 -64.4558 -64.4558 -64.4543 -31.2708 -31.2708 -31.2658 -31.2615
   -31.2516 -31.2412 -31.2412 -31.2268 -31.2257 -31.2257 -31.2248 -31.2123
    -8.6816  -8.0695  -8.0695  -7.8466   4.3122   4.3122   4.6253   4.7935
     5.2218   6.0010   6.0011   6.8282   6.8283   6.8459   6.9097   7.5255

          k = 0.3333 0.3333 0.3333 (  2542 PWs)   bands (ev):

   -64.4587 -64.4558 -64.4558 -64.4558 -31.2858 -31.2858 -31.2858 -31.2745
   -31.2300 -31.2300 -31.2300 -31.2231 -31.2231 -31.2230 -31.2158 -31.2158
    -8.4334  -8.0095  -8.0095  -8.0094   3.6795   3.6795   3.6795   4.1763
     6.4081   6.4081   6.4082   7.0037   7.0037   7.0037   7.3429   7.3429

     highest occupied level (ev):     7.8426

!    total energy              =    -631.49118562 Ry
     Harris-Foulkes estimate   =    -631.49118562 Ry
     estimated scf accuracy    <          8.4E-09 Ry

     The total energy is the sum of the following terms:

     one-electron contribution =    -347.35425122 Ry
     hartree contribution      =     193.09238888 Ry
     xc contribution           =     -97.97684759 Ry
     ewald contribution        =    -379.25247569 Ry

     convergence has been achieved in   8 iterations

     Forces acting on atoms (cartesian axes, Ry/au):

     atom    1 type  1   force =     0.00000000    0.00000000    0.00000000
     atom    2 type  1   force =     0.00000000    0.00000000    0.00000000
     atom    3 type  1   force =     0.00000000    0.00000000   -0.00000000
     atom    4 type  1   force =     0.00000000    0.00000000    0.00000000
     atom    5 type  2   force =     0.00000000    0.00000000    0.00000000
     atom    6 type  2   force =     0.00000000    0.00000000   -0.00000000
     atom    7 type  2   force =     0.00000000    0.00000000    0.00000000
     atom    8 type  2   force =     0.00000000    0.00000000    0.00000000

     Total force =     0.000000     Total SCF correction =     0.000000

     Writing output data file MgO_045_5.save/
 
     init_run     :      0.14s CPU      0.16s WALL (       1 calls)
     electrons    :      1.11s CPU      1.21s WALL (       1 calls)
     forces       :      0.04s CPU      0.04s WALL (       1 calls)

     Called by init_run:
     wfcinit      :      0.04s CPU      0.04s WALL (       1 calls)
     potinit      :      0.01s CPU      0.01s WALL (       1 calls)
     hinit0       :      0.07s CPU      0.08s WALL (       1 calls)

     Called by electrons:
     c_bands      :      0.83s CPU      0.87s WALL (       8 calls)
     sum_band     :      0.17s CPU      0.20s WALL (       8 calls)
     v_of_rho     :      0.03s CPU      0.03s WALL (       9 calls)
     newd         :      0.08s CPU      0.10s WALL (       9 calls)
     mix_rho      :      0.00s CPU      0.01s WALL (       8 calls)

     Called by c_bands:
     init_us_2    :      0.01s CPU      0.01s WALL (      72 calls)
     cegterg      :      0.77s CPU      0.81s WALL (      32 calls)

     Called by sum_band:
     sum_band:bec :      0.00s CPU      0.00s WALL (      32 calls)
     addusdens    :      0.07s CPU      0.09s WALL (       8 calls)

     Called by *egterg:
     h_psi        :      0.48s CPU      0.51s WALL (     107 calls)
     s_psi        :      0.03s CPU      0.03s WALL (     107 calls)
     g_psi        :      0.00s CPU      0.00s WALL (      71 calls)
     cdiaghg      :      0.22s CPU      0.22s WALL (     103 calls)

     Called by h_psi:
     h_psi:pot    :      0.48s CPU      0.51s WALL (     107 calls)
     h_psi:calbec :      0.04s CPU      0.04s WALL (     107 calls)
     vloc_psi     :      0.41s CPU      0.43s WALL (     107 calls)
     add_vuspsi   :      0.03s CPU      0.03s WALL (     107 calls)

     General routines
     calbec       :      0.06s CPU      0.06s WALL (     155 calls)
     fft          :      0.02s CPU      0.02s WALL (     126 calls)
     ffts         :      0.00s CPU      0.00s WALL (      17 calls)
     fftw         :      0.45s CPU      0.48s WALL (    6418 calls)
     interpolate  :      0.00s CPU      0.00s WALL (       9 calls)
 
     Parallel routines
     fft_scatt_xy :      0.04s CPU      0.04s WALL (    6561 calls)
     fft_scatt_yz :      0.28s CPU      0.30s WALL (    6561 calls)
 
     PWSCF        :      1.40s CPU      1.83s WALL

 
   This run was terminated on:  18: 1:18   9Sep2020            

=------------------------------------------------------------------------------=
   JOB DONE.
=------------------------------------------------------------------------------=

     Program PWSCF v.6.4.1 starts on  9Sep2020 at 18: 1:19 

     This program is part of the open-source Quantum ESPRESSO suite
     for quantum simulation of materials; please cite
         "P. Giannozzi et al., J. Phys.:Condens. Matter 21 395502 (2009);
         "P. Giannozzi et al., J. Phys.:Condens. Matter 29 465901 (2017);
          URL http://www.quantum-espresso.org", 
     in publications or presentations arising from this work. More details at
     http://www.quantum-espresso.org/quote

     Parallel version (MPI & OpenMP), running on      20 processor cores
     Number of MPI processes:                20
     Threads/MPI process:                     1

     MPI processes distributed on     1 nodes
     R & G space division:  proc/nbgrp/npool/nimage =      20
     Reading input from /home/hpc/rzku/phyv025h/Exercise_sheet_1/Exercise_1/1_d/MgO_045_6.in

     Current dimensions of program PWSCF are:
     Max number of different atomic species (ntypx) = 10
     Max number of k-points (npk) =  40000
     Max angular momentum in pseudopotentials (lmaxx) =  3

     IMPORTANT: XC functional enforced from input :
     Exchange-correlation      = PBE ( 1  4  3  4 0 0)
     Any further DFT definition will be discarded
     Please, verify this is what you really want


     Subspace diagonalization in iterative solution of the eigenvalue problem:
     a serial algorithm will be used

     Found symmetry operation: I + ( -0.5000 -0.5000  0.0000)
     This is a supercell, fractional translations are disabled
     Message from routine setup:
     DEPRECATED: symmetry with ibrav=0, use correct ibrav instead
 
     Parallelization info
     --------------------
     sticks:   dense  smooth     PW     G-vecs:    dense   smooth      PW
     Min          67      44     13                 1875     1018     155
     Max          68      46     14                 1880     1021     157
     Sum        1353     889    261                37561    20377    3119
 


     bravais-lattice index     =            0
     lattice parameter (alat)  =       7.9557  a.u.
     unit-cell volume          =     503.5503 (a.u.)^3
     number of atoms/cell      =            8
     number of atomic types    =            2
     number of electrons       =        64.00
     number of Kohn-Sham states=           32
     kinetic-energy cutoff     =      45.0000  Ry
     charge density cutoff     =     270.0000  Ry
     convergence threshold     =      1.0E-08
     mixing beta               =       0.7000
     number of iterations used =            8  plain     mixing
     Exchange-correlation      = PBE ( 1  4  3  4 0 0)

     celldm(1)=   7.955747  celldm(2)=   0.000000  celldm(3)=   0.000000
     celldm(4)=   0.000000  celldm(5)=   0.000000  celldm(6)=   0.000000

     crystal axes: (cart. coord. in units of alat)
               a(1) = (   1.000000   0.000000   0.000000 )  
               a(2) = (   0.000000   1.000000   0.000000 )  
               a(3) = (   0.000000   0.000000   1.000000 )  

     reciprocal axes: (cart. coord. in units 2 pi/alat)
               b(1) = (  1.000000  0.000000  0.000000 )  
               b(2) = (  0.000000  1.000000  0.000000 )  
               b(3) = (  0.000000  0.000000  1.000000 )  


     PseudoPot. # 1 for Mg read from file:
     ./Mg.uspp.UPF
     MD5 check sum: 8ffbd8f729fef71095aac5bd8316fb1f
     Pseudo is Ultrasoft, Zval = 10.0
     Generated by new atomic code, or converted to UPF format
     Using radial grid of  821 points,  7 beta functions with: 
                l(1) =   0
                l(2) =   0
                l(3) =   0
                l(4) =   1
                l(5) =   1
                l(6) =   2
                l(7) =   2
     Q(r) pseudized with  8 coefficients,  rinner =    1.200   1.200   1.200
                                                       1.200   1.200

     PseudoPot. # 2 for O  read from file:
     ./O.uspp.UPF
     MD5 check sum: 734c27235a0248c51dbae37a1fbe46ec
     Pseudo is Ultrasoft + core correction, Zval =  6.0
     Generated by new atomic code, or converted to UPF format
     Using radial grid of  737 points,  5 beta functions with: 
                l(1) =   0
                l(2) =   0
                l(3) =   1
                l(4) =   1
                l(5) =   2
     Q(r) pseudized with  8 coefficients,  rinner =    0.900   0.900   0.900
                                                       0.900   0.900

     atomic species   valence    mass     pseudopotential
        Mg            10.00    24.30500     Mg( 1.00)
        O              6.00    15.99900     O ( 1.00)

     48 Sym. Ops., with inversion, found



   Cartesian axes

     site n.     atom                  positions (alat units)
         1           Mg  tau(   1) = (   0.0000000   0.0000000   0.0000000  )
         2           Mg  tau(   2) = (   0.5000000   0.5000000   0.0000000  )
         3           Mg  tau(   3) = (   0.5000000   0.0000000   0.5000000  )
         4           Mg  tau(   4) = (   0.0000000   0.5000000   0.5000000  )
         5           O   tau(   5) = (   0.5000000   0.0000000   0.0000000  )
         6           O   tau(   6) = (   0.0000000   0.5000000   0.0000000  )
         7           O   tau(   7) = (   0.0000000   0.0000000   0.5000000  )
         8           O   tau(   8) = (   0.5000000   0.5000000   0.5000000  )

     number of k points=     4
                       cart. coord. in units 2pi/alat
        k(    1) = (   0.0000000   0.0000000   0.0000000), wk =   0.0740741
        k(    2) = (   0.0000000   0.0000000   0.3333333), wk =   0.4444444
        k(    3) = (   0.0000000   0.3333333   0.3333333), wk =   0.8888889
        k(    4) = (   0.3333333   0.3333333   0.3333333), wk =   0.5925926

     Dense  grid:    37561 G-vectors     FFT dimensions: (  45,  45,  45)

     Smooth grid:    20377 G-vectors     FFT dimensions: (  36,  36,  36)

     Estimated max dynamical RAM per process >      12.83 MB

     Estimated total dynamical RAM >     256.50 MB

     Check: negative core charge=   -0.000003

     Initial potential from superposition of free atoms

     starting charge   62.79908, renormalised to   64.00000
     Starting wfcs are   36 randomized atomic wfcs

     total cpu time spent up to now is        0.3 secs

     Self-consistent Calculation

     iteration #  1     ecut=    45.00 Ry     beta= 0.70
     Davidson diagonalization with overlap
     ethr =  1.00E-02,  avg # of iterations =  2.0

     total cpu time spent up to now is        0.4 secs

     total energy              =    -630.82594856 Ry
     Harris-Foulkes estimate   =    -632.00916647 Ry
     estimated scf accuracy    <       1.54211254 Ry

     iteration #  2     ecut=    45.00 Ry     beta= 0.70
     Davidson diagonalization with overlap
     ethr =  2.41E-03,  avg # of iterations =  2.8

     total cpu time spent up to now is        0.6 secs

     total energy              =    -631.21104332 Ry
     Harris-Foulkes estimate   =    -631.88562802 Ry
     estimated scf accuracy    <       1.40018612 Ry

     iteration #  3     ecut=    45.00 Ry     beta= 0.70
     Davidson diagonalization with overlap
     ethr =  2.19E-03,  avg # of iterations =  2.0

     total cpu time spent up to now is        0.8 secs

     total energy              =    -631.48967257 Ry
     Harris-Foulkes estimate   =    -631.49320227 Ry
     estimated scf accuracy    <       0.01068545 Ry

     iteration #  4     ecut=    45.00 Ry     beta= 0.70
     Davidson diagonalization with overlap
     ethr =  1.67E-05,  avg # of iterations =  2.0

     total cpu time spent up to now is        1.0 secs

     total energy              =    -631.49117715 Ry
     Harris-Foulkes estimate   =    -631.49118289 Ry
     estimated scf accuracy    <       0.00039798 Ry

     iteration #  5     ecut=    45.00 Ry     beta= 0.70
     Davidson diagonalization with overlap
     ethr =  6.22E-07,  avg # of iterations =  2.0

     total cpu time spent up to now is        1.1 secs

     total energy              =    -631.49120796 Ry
     Harris-Foulkes estimate   =    -631.49120732 Ry
     estimated scf accuracy    <       0.00000512 Ry

     iteration #  6     ecut=    45.00 Ry     beta= 0.70
     Davidson diagonalization with overlap
     ethr =  8.00E-09,  avg # of iterations =  2.2

     total cpu time spent up to now is        1.3 secs

     total energy              =    -631.49120867 Ry
     Harris-Foulkes estimate   =    -631.49120925 Ry
     estimated scf accuracy    <       0.00000166 Ry

     iteration #  7     ecut=    45.00 Ry     beta= 0.70
     Davidson diagonalization with overlap
     ethr =  2.59E-09,  avg # of iterations =  2.8

     total cpu time spent up to now is        1.4 secs

     total energy              =    -631.49120893 Ry
     Harris-Foulkes estimate   =    -631.49120901 Ry
     estimated scf accuracy    <       0.00000025 Ry

     iteration #  8     ecut=    45.00 Ry     beta= 0.70
     Davidson diagonalization with overlap
     ethr =  3.86E-10,  avg # of iterations =  2.0

     total cpu time spent up to now is        1.6 secs

     End of self-consistent calculation

          k = 0.0000 0.0000 0.0000 (  2553 PWs)   bands (ev):

   -64.4661 -64.4545 -64.4545 -64.4541 -31.2837 -31.2837 -31.2837 -31.2394
   -31.2394 -31.2394 -31.2390 -31.2390 -31.2390 -31.2103 -31.2103 -31.2103
    -9.3814  -7.8359  -7.8358  -7.8358   3.7818   3.7818   3.7818   6.5004
     6.5004   6.5004   6.5006   6.5006   6.5006   7.8431   7.8431   7.8431

          k = 0.0000 0.0000 0.3333 (  2601 PWs)   bands (ev):

   -64.4632 -64.4573 -64.4546 -64.4542 -31.2725 -31.2725 -31.2670 -31.2503
   -31.2503 -31.2408 -31.2405 -31.2319 -31.2319 -31.2304 -31.2175 -31.2175
    -9.0013  -8.2266  -7.7875  -7.7874   4.3035   4.3035   4.4177   5.6128
     5.6128   6.1764   6.1766   6.2610   6.7921   6.7921   7.4572   7.4572

          k = 0.0000 0.3333 0.3333 (  2562 PWs)   bands (ev):

   -64.4610 -64.4567 -64.4565 -64.4551 -31.2718 -31.2715 -31.2666 -31.2623
   -31.2524 -31.2422 -31.2418 -31.2276 -31.2267 -31.2265 -31.2256 -31.2131
    -8.6812  -8.0691  -8.0690  -7.8462   4.3126   4.3127   4.6258   4.7940
     5.2223   6.0014   6.0016   6.8287   6.8288   6.8464   6.9102   7.5260

          k = 0.3333 0.3333 0.3333 (  2542 PWs)   bands (ev):

   -64.4595 -64.4567 -64.4567 -64.4563 -31.2868 -31.2867 -31.2867 -31.2754
   -31.2310 -31.2310 -31.2306 -31.2241 -31.2238 -31.2238 -31.2167 -31.2167
    -8.4330  -8.0092  -8.0090  -8.0090   3.6799   3.6800   3.6800   4.1768
     6.4085   6.4086   6.4086   7.0041   7.0041   7.0043   7.3434   7.3434

     highest occupied level (ev):     7.8431

!    total energy              =    -631.49120895 Ry
     Harris-Foulkes estimate   =    -631.49120895 Ry
     estimated scf accuracy    <          8.2E-09 Ry

     The total energy is the sum of the following terms:

     one-electron contribution =    -347.35340182 Ry
     hartree contribution      =     193.09142283 Ry
     xc contribution           =     -97.97675427 Ry
     ewald contribution        =    -379.25247569 Ry

     convergence has been achieved in   8 iterations

     Forces acting on atoms (cartesian axes, Ry/au):

     atom    1 type  1   force =     0.00000000    0.00000000    0.00000000
     atom    2 type  1   force =     0.00000000    0.00000000   -0.00000000
     atom    3 type  1   force =     0.00000000    0.00000000    0.00000000
     atom    4 type  1   force =     0.00000000    0.00000000   -0.00000000
     atom    5 type  2   force =     0.00000000    0.00000000   -0.00000000
     atom    6 type  2   force =     0.00000000    0.00000000    0.00000000
     atom    7 type  2   force =     0.00000000   -0.00000000    0.00000000
     atom    8 type  2   force =     0.00000000    0.00000000    0.00000000

     Total force =     0.000000     Total SCF correction =     0.000000

     Writing output data file MgO_045_6.save/
 
     init_run     :      0.15s CPU      0.17s WALL (       1 calls)
     electrons    :      1.24s CPU      1.32s WALL (       1 calls)
     forces       :      0.05s CPU      0.05s WALL (       1 calls)

     Called by init_run:
     wfcinit      :      0.04s CPU      0.05s WALL (       1 calls)
     potinit      :      0.01s CPU      0.01s WALL (       1 calls)
     hinit0       :      0.07s CPU      0.08s WALL (       1 calls)

     Called by electrons:
     c_bands      :      0.86s CPU      0.89s WALL (       8 calls)
     sum_band     :      0.23s CPU      0.24s WALL (       8 calls)
     v_of_rho     :      0.04s CPU      0.04s WALL (       9 calls)
     newd         :      0.11s CPU      0.12s WALL (       9 calls)
     mix_rho      :      0.01s CPU      0.01s WALL (       8 calls)

     Called by c_bands:
     init_us_2    :      0.01s CPU      0.01s WALL (      72 calls)
     cegterg      :      0.81s CPU      0.84s WALL (      32 calls)

     Called by sum_band:
     sum_band:bec :      0.00s CPU      0.00s WALL (      32 calls)
     addusdens    :      0.10s CPU      0.11s WALL (       8 calls)

     Called by *egterg:
     h_psi        :      0.51s CPU      0.53s WALL (     107 calls)
     s_psi        :      0.03s CPU      0.03s WALL (     107 calls)
     g_psi        :      0.00s CPU      0.00s WALL (      71 calls)
     cdiaghg      :      0.22s CPU      0.22s WALL (     103 calls)

     Called by h_psi:
     h_psi:pot    :      0.51s CPU      0.53s WALL (     107 calls)
     h_psi:calbec :      0.04s CPU      0.04s WALL (     107 calls)
     vloc_psi     :      0.43s CPU      0.45s WALL (     107 calls)
     add_vuspsi   :      0.03s CPU      0.03s WALL (     107 calls)

     General routines
     calbec       :      0.06s CPU      0.06s WALL (     155 calls)
     fft          :      0.03s CPU      0.03s WALL (     126 calls)
     ffts         :      0.00s CPU      0.00s WALL (      17 calls)
     fftw         :      0.49s CPU      0.51s WALL (    6418 calls)
     interpolate  :      0.00s CPU      0.00s WALL (       9 calls)
 
     Parallel routines
     fft_scatt_xy :      0.04s CPU      0.05s WALL (    6561 calls)
     fft_scatt_yz :      0.32s CPU      0.33s WALL (    6561 calls)
 
     PWSCF        :      1.64s CPU      1.98s WALL

 
   This run was terminated on:  18: 1:21   9Sep2020            

=------------------------------------------------------------------------------=
   JOB DONE.
=------------------------------------------------------------------------------=

     Program PWSCF v.6.4.1 starts on  9Sep2020 at 18: 1:22 

     This program is part of the open-source Quantum ESPRESSO suite
     for quantum simulation of materials; please cite
         "P. Giannozzi et al., J. Phys.:Condens. Matter 21 395502 (2009);
         "P. Giannozzi et al., J. Phys.:Condens. Matter 29 465901 (2017);
          URL http://www.quantum-espresso.org", 
     in publications or presentations arising from this work. More details at
     http://www.quantum-espresso.org/quote

     Parallel version (MPI & OpenMP), running on      20 processor cores
     Number of MPI processes:                20
     Threads/MPI process:                     1

     MPI processes distributed on     1 nodes
     R & G space division:  proc/nbgrp/npool/nimage =      20
     Reading input from /home/hpc/rzku/phyv025h/Exercise_sheet_1/Exercise_1/1_d/MgO_045_7.in

     Current dimensions of program PWSCF are:
     Max number of different atomic species (ntypx) = 10
     Max number of k-points (npk) =  40000
     Max angular momentum in pseudopotentials (lmaxx) =  3

     IMPORTANT: XC functional enforced from input :
     Exchange-correlation      = PBE ( 1  4  3  4 0 0)
     Any further DFT definition will be discarded
     Please, verify this is what you really want


     Subspace diagonalization in iterative solution of the eigenvalue problem:
     a serial algorithm will be used

     Found symmetry operation: I + ( -0.5000 -0.5000  0.0000)
     This is a supercell, fractional translations are disabled
     Message from routine setup:
     DEPRECATED: symmetry with ibrav=0, use correct ibrav instead
 
     Parallelization info
     --------------------
     sticks:   dense  smooth     PW     G-vecs:    dense   smooth      PW
     Min          79      44     13                 2374     1018     155
     Max          81      46     14                 2378     1021     157
     Sum        1597     889    261                47497    20377    3119
 


     bravais-lattice index     =            0
     lattice parameter (alat)  =       7.9557  a.u.
     unit-cell volume          =     503.5503 (a.u.)^3
     number of atoms/cell      =            8
     number of atomic types    =            2
     number of electrons       =        64.00
     number of Kohn-Sham states=           32
     kinetic-energy cutoff     =      45.0000  Ry
     charge density cutoff     =     315.0000  Ry
     convergence threshold     =      1.0E-08
     mixing beta               =       0.7000
     number of iterations used =            8  plain     mixing
     Exchange-correlation      = PBE ( 1  4  3  4 0 0)

     celldm(1)=   7.955747  celldm(2)=   0.000000  celldm(3)=   0.000000
     celldm(4)=   0.000000  celldm(5)=   0.000000  celldm(6)=   0.000000

     crystal axes: (cart. coord. in units of alat)
               a(1) = (   1.000000   0.000000   0.000000 )  
               a(2) = (   0.000000   1.000000   0.000000 )  
               a(3) = (   0.000000   0.000000   1.000000 )  

     reciprocal axes: (cart. coord. in units 2 pi/alat)
               b(1) = (  1.000000  0.000000  0.000000 )  
               b(2) = (  0.000000  1.000000  0.000000 )  
               b(3) = (  0.000000  0.000000  1.000000 )  


     PseudoPot. # 1 for Mg read from file:
     ./Mg.uspp.UPF
     MD5 check sum: 8ffbd8f729fef71095aac5bd8316fb1f
     Pseudo is Ultrasoft, Zval = 10.0
     Generated by new atomic code, or converted to UPF format
     Using radial grid of  821 points,  7 beta functions with: 
                l(1) =   0
                l(2) =   0
                l(3) =   0
                l(4) =   1
                l(5) =   1
                l(6) =   2
                l(7) =   2
     Q(r) pseudized with  8 coefficients,  rinner =    1.200   1.200   1.200
                                                       1.200   1.200

     PseudoPot. # 2 for O  read from file:
     ./O.uspp.UPF
     MD5 check sum: 734c27235a0248c51dbae37a1fbe46ec
     Pseudo is Ultrasoft + core correction, Zval =  6.0
     Generated by new atomic code, or converted to UPF format
     Using radial grid of  737 points,  5 beta functions with: 
                l(1) =   0
                l(2) =   0
                l(3) =   1
                l(4) =   1
                l(5) =   2
     Q(r) pseudized with  8 coefficients,  rinner =    0.900   0.900   0.900
                                                       0.900   0.900

     atomic species   valence    mass     pseudopotential
        Mg            10.00    24.30500     Mg( 1.00)
        O              6.00    15.99900     O ( 1.00)

     48 Sym. Ops., with inversion, found



   Cartesian axes

     site n.     atom                  positions (alat units)
         1           Mg  tau(   1) = (   0.0000000   0.0000000   0.0000000  )
         2           Mg  tau(   2) = (   0.5000000   0.5000000   0.0000000  )
         3           Mg  tau(   3) = (   0.5000000   0.0000000   0.5000000  )
         4           Mg  tau(   4) = (   0.0000000   0.5000000   0.5000000  )
         5           O   tau(   5) = (   0.5000000   0.0000000   0.0000000  )
         6           O   tau(   6) = (   0.0000000   0.5000000   0.0000000  )
         7           O   tau(   7) = (   0.0000000   0.0000000   0.5000000  )
         8           O   tau(   8) = (   0.5000000   0.5000000   0.5000000  )

     number of k points=     4
                       cart. coord. in units 2pi/alat
        k(    1) = (   0.0000000   0.0000000   0.0000000), wk =   0.0740741
        k(    2) = (   0.0000000   0.0000000   0.3333333), wk =   0.4444444
        k(    3) = (   0.0000000   0.3333333   0.3333333), wk =   0.8888889
        k(    4) = (   0.3333333   0.3333333   0.3333333), wk =   0.5925926

     Dense  grid:    47497 G-vectors     FFT dimensions: (  45,  45,  45)

     Smooth grid:    20377 G-vectors     FFT dimensions: (  36,  36,  36)

     Estimated max dynamical RAM per process >      15.12 MB

     Estimated total dynamical RAM >     302.35 MB

     Check: negative core charge=   -0.000001

     Initial potential from superposition of free atoms

     starting charge   62.79908, renormalised to   64.00000
     Starting wfcs are   36 randomized atomic wfcs

     total cpu time spent up to now is        0.3 secs

     Self-consistent Calculation

     iteration #  1     ecut=    45.00 Ry     beta= 0.70
     Davidson diagonalization with overlap
     ethr =  1.00E-02,  avg # of iterations =  2.0

     total cpu time spent up to now is        0.5 secs

     total energy              =    -630.82590471 Ry
     Harris-Foulkes estimate   =    -632.00922845 Ry
     estimated scf accuracy    <       1.54220019 Ry

     iteration #  2     ecut=    45.00 Ry     beta= 0.70
     Davidson diagonalization with overlap
     ethr =  2.41E-03,  avg # of iterations =  2.8

     total cpu time spent up to now is        0.7 secs

     total energy              =    -631.21103368 Ry
     Harris-Foulkes estimate   =    -631.88569433 Ry
     estimated scf accuracy    <       1.40033963 Ry

     iteration #  3     ecut=    45.00 Ry     beta= 0.70
     Davidson diagonalization with overlap
     ethr =  2.19E-03,  avg # of iterations =  2.0

     total cpu time spent up to now is        0.8 secs

     total energy              =    -631.48969372 Ry
     Harris-Foulkes estimate   =    -631.49322379 Ry
     estimated scf accuracy    <       0.01068609 Ry

     iteration #  4     ecut=    45.00 Ry     beta= 0.70
     Davidson diagonalization with overlap
     ethr =  1.67E-05,  avg # of iterations =  2.0

     total cpu time spent up to now is        1.0 secs

     total energy              =    -631.49119836 Ry
     Harris-Foulkes estimate   =    -631.49120416 Ry
     estimated scf accuracy    <       0.00039804 Ry

     iteration #  5     ecut=    45.00 Ry     beta= 0.70
     Davidson diagonalization with overlap
     ethr =  6.22E-07,  avg # of iterations =  2.0

     total cpu time spent up to now is        1.1 secs

     total energy              =    -631.49122917 Ry
     Harris-Foulkes estimate   =    -631.49122853 Ry
     estimated scf accuracy    <       0.00000512 Ry

     iteration #  6     ecut=    45.00 Ry     beta= 0.70
     Davidson diagonalization with overlap
     ethr =  8.00E-09,  avg # of iterations =  2.2

     total cpu time spent up to now is        1.3 secs

     total energy              =    -631.49122988 Ry
     Harris-Foulkes estimate   =    -631.49123045 Ry
     estimated scf accuracy    <       0.00000163 Ry

     iteration #  7     ecut=    45.00 Ry     beta= 0.70
     Davidson diagonalization with overlap
     ethr =  2.55E-09,  avg # of iterations =  2.8

     total cpu time spent up to now is        1.4 secs

     total energy              =    -631.49123014 Ry
     Harris-Foulkes estimate   =    -631.49123021 Ry
     estimated scf accuracy    <       0.00000025 Ry

     iteration #  8     ecut=    45.00 Ry     beta= 0.70
     Davidson diagonalization with overlap
     ethr =  3.85E-10,  avg # of iterations =  2.0

     total cpu time spent up to now is        1.6 secs

     End of self-consistent calculation

          k = 0.0000 0.0000 0.0000 (  2553 PWs)   bands (ev):

   -64.4661 -64.4546 -64.4546 -64.4542 -31.2837 -31.2837 -31.2837 -31.2394
   -31.2394 -31.2394 -31.2390 -31.2390 -31.2390 -31.2104 -31.2104 -31.2104
    -9.3814  -7.8358  -7.8357  -7.8357   3.7818   3.7818   3.7818   6.5004
     6.5004   6.5004   6.5006   6.5006   6.5006   7.8432   7.8432   7.8432

          k = 0.0000 0.0000 0.3333 (  2601 PWs)   bands (ev):

   -64.4632 -64.4574 -64.4546 -64.4543 -31.2726 -31.2726 -31.2671 -31.2503
   -31.2503 -31.2409 -31.2405 -31.2320 -31.2320 -31.2304 -31.2176 -31.2176
    -9.0013  -8.2266  -7.7875  -7.7874   4.3035   4.3035   4.4178   5.6128
     5.6128   6.1765   6.1766   6.2610   6.7921   6.7921   7.4572   7.4572

          k = 0.0000 0.3333 0.3333 (  2562 PWs)   bands (ev):

   -64.4610 -64.4568 -64.4565 -64.4551 -31.2718 -31.2716 -31.2667 -31.2624
   -31.2525 -31.2423 -31.2419 -31.2277 -31.2267 -31.2265 -31.2257 -31.2132
    -8.6812  -8.0691  -8.0690  -7.8461   4.3127   4.3127   4.6258   4.7940
     5.2223   6.0015   6.0016   6.8288   6.8288   6.8464   6.9102   7.5260

          k = 0.3333 0.3333 0.3333 (  2542 PWs)   bands (ev):

   -64.4595 -64.4568 -64.4568 -64.4563 -31.2868 -31.2867 -31.2867 -31.2754
   -31.2311 -31.2311 -31.2307 -31.2241 -31.2239 -31.2239 -31.2167 -31.2167
    -8.4329  -8.0091  -8.0090  -8.0090   3.6800   3.6800   3.6800   4.1768
     6.4085   6.4087   6.4087   7.0042   7.0042   7.0043   7.3434   7.3434

     highest occupied level (ev):     7.8432

!    total energy              =    -631.49123015 Ry
     Harris-Foulkes estimate   =    -631.49123016 Ry
     estimated scf accuracy    <          8.2E-09 Ry

     The total energy is the sum of the following terms:

     one-electron contribution =    -347.35336478 Ry
     hartree contribution      =     193.09139606 Ry
     xc contribution           =     -97.97678575 Ry
     ewald contribution        =    -379.25247568 Ry

     convergence has been achieved in   8 iterations

     Forces acting on atoms (cartesian axes, Ry/au):

     atom    1 type  1   force =     0.00000000    0.00000000    0.00000000
     atom    2 type  1   force =     0.00000000   -0.00000000    0.00000000
     atom    3 type  1   force =     0.00000000    0.00000000    0.00000000
     atom    4 type  1   force =     0.00000000    0.00000000    0.00000000
     atom    5 type  2   force =     0.00000000    0.00000000    0.00000000
     atom    6 type  2   force =     0.00000000    0.00000000   -0.00000000
     atom    7 type  2   force =     0.00000000    0.00000000    0.00000000
     atom    8 type  2   force =     0.00000000    0.00000000    0.00000000

     Total force =     0.000000     Total SCF correction =     0.000000

     Writing output data file MgO_045_7.save/
 
     init_run     :      0.17s CPU      0.19s WALL (       1 calls)
     electrons    :      1.22s CPU      1.34s WALL (       1 calls)
     forces       :      0.05s CPU      0.05s WALL (       1 calls)

     Called by init_run:
     wfcinit      :      0.04s CPU      0.05s WALL (       1 calls)
     potinit      :      0.01s CPU      0.02s WALL (       1 calls)
     hinit0       :      0.08s CPU      0.09s WALL (       1 calls)

     Called by electrons:
     c_bands      :      0.81s CPU      0.86s WALL (       8 calls)
     sum_band     :      0.23s CPU      0.26s WALL (       8 calls)
     v_of_rho     :      0.04s CPU      0.04s WALL (       9 calls)
     newd         :      0.14s CPU      0.16s WALL (       9 calls)
     mix_rho      :      0.01s CPU      0.01s WALL (       8 calls)

     Called by c_bands:
     init_us_2    :      0.01s CPU      0.01s WALL (      72 calls)
     cegterg      :      0.76s CPU      0.80s WALL (      32 calls)

     Called by sum_band:
     sum_band:bec :      0.00s CPU      0.00s WALL (      32 calls)
     addusdens    :      0.12s CPU      0.15s WALL (       8 calls)

     Called by *egterg:
     h_psi        :      0.47s CPU      0.51s WALL (     107 calls)
     s_psi        :      0.03s CPU      0.03s WALL (     107 calls)
     g_psi        :      0.00s CPU      0.00s WALL (      71 calls)
     cdiaghg      :      0.22s CPU      0.22s WALL (     103 calls)

     Called by h_psi:
     h_psi:pot    :      0.47s CPU      0.51s WALL (     107 calls)
     h_psi:calbec :      0.04s CPU      0.04s WALL (     107 calls)
     vloc_psi     :      0.40s CPU      0.43s WALL (     107 calls)
     add_vuspsi   :      0.03s CPU      0.03s WALL (     107 calls)

     General routines
     calbec       :      0.06s CPU      0.06s WALL (     155 calls)
     fft          :      0.03s CPU      0.04s WALL (     126 calls)
     ffts         :      0.00s CPU      0.00s WALL (      17 calls)
     fftw         :      0.44s CPU      0.48s WALL (    6418 calls)
     interpolate  :      0.00s CPU      0.00s WALL (       9 calls)
 
     Parallel routines
     fft_scatt_xy :      0.04s CPU      0.04s WALL (    6561 calls)
     fft_scatt_yz :      0.29s CPU      0.31s WALL (    6561 calls)
 
     PWSCF        :      1.54s CPU      2.03s WALL

 
   This run was terminated on:  18: 1:24   9Sep2020            

=------------------------------------------------------------------------------=
   JOB DONE.
=------------------------------------------------------------------------------=

     Program PWSCF v.6.4.1 starts on  9Sep2020 at 18: 1:25 

     This program is part of the open-source Quantum ESPRESSO suite
     for quantum simulation of materials; please cite
         "P. Giannozzi et al., J. Phys.:Condens. Matter 21 395502 (2009);
         "P. Giannozzi et al., J. Phys.:Condens. Matter 29 465901 (2017);
          URL http://www.quantum-espresso.org", 
     in publications or presentations arising from this work. More details at
     http://www.quantum-espresso.org/quote

     Parallel version (MPI & OpenMP), running on      20 processor cores
     Number of MPI processes:                20
     Threads/MPI process:                     1

     MPI processes distributed on     1 nodes
     R & G space division:  proc/nbgrp/npool/nimage =      20
     Reading input from /home/hpc/rzku/phyv025h/Exercise_sheet_1/Exercise_1/1_d/MgO_045_8.in

     Current dimensions of program PWSCF are:
     Max number of different atomic species (ntypx) = 10
     Max number of k-points (npk) =  40000
     Max angular momentum in pseudopotentials (lmaxx) =  3

     IMPORTANT: XC functional enforced from input :
     Exchange-correlation      = PBE ( 1  4  3  4 0 0)
     Any further DFT definition will be discarded
     Please, verify this is what you really want


     Subspace diagonalization in iterative solution of the eigenvalue problem:
     a serial algorithm will be used

     Found symmetry operation: I + ( -0.5000 -0.5000  0.0000)
     This is a supercell, fractional translations are disabled
     Message from routine setup:
     DEPRECATED: symmetry with ibrav=0, use correct ibrav instead
 
     Parallelization info
     --------------------
     sticks:   dense  smooth     PW     G-vecs:    dense   smooth      PW
     Min          90      44     13                 2892     1018     155
     Max          91      46     14                 2896     1021     157
     Sum        1801     889    261                57873    20377    3119
 


     bravais-lattice index     =            0
     lattice parameter (alat)  =       7.9557  a.u.
     unit-cell volume          =     503.5503 (a.u.)^3
     number of atoms/cell      =            8
     number of atomic types    =            2
     number of electrons       =        64.00
     number of Kohn-Sham states=           32
     kinetic-energy cutoff     =      45.0000  Ry
     charge density cutoff     =     360.0000  Ry
     convergence threshold     =      1.0E-08
     mixing beta               =       0.7000
     number of iterations used =            8  plain     mixing
     Exchange-correlation      = PBE ( 1  4  3  4 0 0)

     celldm(1)=   7.955747  celldm(2)=   0.000000  celldm(3)=   0.000000
     celldm(4)=   0.000000  celldm(5)=   0.000000  celldm(6)=   0.000000

     crystal axes: (cart. coord. in units of alat)
               a(1) = (   1.000000   0.000000   0.000000 )  
               a(2) = (   0.000000   1.000000   0.000000 )  
               a(3) = (   0.000000   0.000000   1.000000 )  

     reciprocal axes: (cart. coord. in units 2 pi/alat)
               b(1) = (  1.000000  0.000000  0.000000 )  
               b(2) = (  0.000000  1.000000  0.000000 )  
               b(3) = (  0.000000  0.000000  1.000000 )  


     PseudoPot. # 1 for Mg read from file:
     ./Mg.uspp.UPF
     MD5 check sum: 8ffbd8f729fef71095aac5bd8316fb1f
     Pseudo is Ultrasoft, Zval = 10.0
     Generated by new atomic code, or converted to UPF format
     Using radial grid of  821 points,  7 beta functions with: 
                l(1) =   0
                l(2) =   0
                l(3) =   0
                l(4) =   1
                l(5) =   1
                l(6) =   2
                l(7) =   2
     Q(r) pseudized with  8 coefficients,  rinner =    1.200   1.200   1.200
                                                       1.200   1.200

     PseudoPot. # 2 for O  read from file:
     ./O.uspp.UPF
     MD5 check sum: 734c27235a0248c51dbae37a1fbe46ec
     Pseudo is Ultrasoft + core correction, Zval =  6.0
     Generated by new atomic code, or converted to UPF format
     Using radial grid of  737 points,  5 beta functions with: 
                l(1) =   0
                l(2) =   0
                l(3) =   1
                l(4) =   1
                l(5) =   2
     Q(r) pseudized with  8 coefficients,  rinner =    0.900   0.900   0.900
                                                       0.900   0.900

     atomic species   valence    mass     pseudopotential
        Mg            10.00    24.30500     Mg( 1.00)
        O              6.00    15.99900     O ( 1.00)

     48 Sym. Ops., with inversion, found



   Cartesian axes

     site n.     atom                  positions (alat units)
         1           Mg  tau(   1) = (   0.0000000   0.0000000   0.0000000  )
         2           Mg  tau(   2) = (   0.5000000   0.5000000   0.0000000  )
         3           Mg  tau(   3) = (   0.5000000   0.0000000   0.5000000  )
         4           Mg  tau(   4) = (   0.0000000   0.5000000   0.5000000  )
         5           O   tau(   5) = (   0.5000000   0.0000000   0.0000000  )
         6           O   tau(   6) = (   0.0000000   0.5000000   0.0000000  )
         7           O   tau(   7) = (   0.0000000   0.0000000   0.5000000  )
         8           O   tau(   8) = (   0.5000000   0.5000000   0.5000000  )

     number of k points=     4
                       cart. coord. in units 2pi/alat
        k(    1) = (   0.0000000   0.0000000   0.0000000), wk =   0.0740741
        k(    2) = (   0.0000000   0.0000000   0.3333333), wk =   0.4444444
        k(    3) = (   0.0000000   0.3333333   0.3333333), wk =   0.8888889
        k(    4) = (   0.3333333   0.3333333   0.3333333), wk =   0.5925926

     Dense  grid:    57873 G-vectors     FFT dimensions: (  50,  50,  50)

     Smooth grid:    20377 G-vectors     FFT dimensions: (  36,  36,  36)

     Estimated max dynamical RAM per process >      17.58 MB

     Estimated total dynamical RAM >     351.67 MB

     Check: negative core charge=   -0.000002

     Initial potential from superposition of free atoms

     starting charge   62.79908, renormalised to   64.00000
     Starting wfcs are   36 randomized atomic wfcs

     total cpu time spent up to now is        0.3 secs

     Self-consistent Calculation

     iteration #  1     ecut=    45.00 Ry     beta= 0.70
     Davidson diagonalization with overlap
     ethr =  1.00E-02,  avg # of iterations =  2.0

     total cpu time spent up to now is        0.5 secs

     total energy              =    -630.82588674 Ry
     Harris-Foulkes estimate   =    -632.00925290 Ry
     estimated scf accuracy    <       1.54222125 Ry

     iteration #  2     ecut=    45.00 Ry     beta= 0.70
     Davidson diagonalization with overlap
     ethr =  2.41E-03,  avg # of iterations =  2.8

     total cpu time spent up to now is        0.7 secs

     total energy              =    -631.21105710 Ry
     Harris-Foulkes estimate   =    -631.88572082 Ry
     estimated scf accuracy    <       1.40042204 Ry

     iteration #  3     ecut=    45.00 Ry     beta= 0.70
     Davidson diagonalization with overlap
     ethr =  2.19E-03,  avg # of iterations =  2.0

     total cpu time spent up to now is        0.9 secs

     total energy              =    -631.48972140 Ry
     Harris-Foulkes estimate   =    -631.49324787 Ry
     estimated scf accuracy    <       0.01068397 Ry

     iteration #  4     ecut=    45.00 Ry     beta= 0.70
     Davidson diagonalization with overlap
     ethr =  1.67E-05,  avg # of iterations =  2.0

     total cpu time spent up to now is        1.0 secs

     total energy              =    -631.49122643 Ry
     Harris-Foulkes estimate   =    -631.49123187 Ry
     estimated scf accuracy    <       0.00039813 Ry

     iteration #  5     ecut=    45.00 Ry     beta= 0.70
     Davidson diagonalization with overlap
     ethr =  6.22E-07,  avg # of iterations =  2.0

     total cpu time spent up to now is        1.2 secs

     total energy              =    -631.49125727 Ry
     Harris-Foulkes estimate   =    -631.49125664 Ry
     estimated scf accuracy    <       0.00000513 Ry

     iteration #  6     ecut=    45.00 Ry     beta= 0.70
     Davidson diagonalization with overlap
     ethr =  8.02E-09,  avg # of iterations =  2.2

     total cpu time spent up to now is        1.4 secs

     total energy              =    -631.49125799 Ry
     Harris-Foulkes estimate   =    -631.49125857 Ry
     estimated scf accuracy    <       0.00000168 Ry

     iteration #  7     ecut=    45.00 Ry     beta= 0.70
     Davidson diagonalization with overlap
     ethr =  2.62E-09,  avg # of iterations =  2.8

     total cpu time spent up to now is        1.5 secs

     total energy              =    -631.49125826 Ry
     Harris-Foulkes estimate   =    -631.49125833 Ry
     estimated scf accuracy    <       0.00000025 Ry

     iteration #  8     ecut=    45.00 Ry     beta= 0.70
     Davidson diagonalization with overlap
     ethr =  3.90E-10,  avg # of iterations =  2.0

     total cpu time spent up to now is        1.7 secs

     End of self-consistent calculation

          k = 0.0000 0.0000 0.0000 (  2553 PWs)   bands (ev):

   -64.4659 -64.4542 -64.4542 -64.4542 -31.2835 -31.2835 -31.2835 -31.2390
   -31.2390 -31.2390 -31.2390 -31.2390 -31.2390 -31.2101 -31.2101 -31.2101
    -9.3815  -7.8359  -7.8359  -7.8358   3.7816   3.7816   3.7816   6.5003
     6.5003   6.5003   6.5004   6.5004   6.5004   7.8430   7.8430   7.8430

          k = 0.0000 0.0000 0.3333 (  2601 PWs)   bands (ev):

   -64.4630 -64.4571 -64.4542 -64.4542 -31.2723 -31.2723 -31.2668 -31.2501
   -31.2501 -31.2405 -31.2405 -31.2317 -31.2317 -31.2302 -31.2173 -31.2173
    -9.0014  -8.2267  -7.7876  -7.7875   4.3033   4.3033   4.4176   5.6126
     5.6126   6.1764   6.1764   6.2608   6.7920   6.7920   7.4571   7.4571

          k = 0.0000 0.3333 0.3333 (  2562 PWs)   bands (ev):

   -64.4608 -64.4564 -64.4564 -64.4549 -31.2715 -31.2714 -31.2664 -31.2621
   -31.2522 -31.2418 -31.2418 -31.2274 -31.2264 -31.2264 -31.2254 -31.2129
    -8.6813  -8.0692  -8.0691  -7.8462   4.3125   4.3125   4.6257   4.7938
     5.2221   6.0013   6.0014   6.8286   6.8286   6.8462   6.9101   7.5259

          k = 0.3333 0.3333 0.3333 (  2542 PWs)   bands (ev):

   -64.4593 -64.4564 -64.4564 -64.4564 -31.2865 -31.2865 -31.2865 -31.2752
   -31.2307 -31.2307 -31.2307 -31.2237 -31.2237 -31.2237 -31.2165 -31.2165
    -8.4330  -8.0092  -8.0092  -8.0091   3.6798   3.6798   3.6798   4.1766
     6.4084   6.4084   6.4085   7.0040   7.0041   7.0041   7.3433   7.3433

     highest occupied level (ev):     7.8430

!    total energy              =    -631.49125827 Ry
     Harris-Foulkes estimate   =    -631.49125827 Ry
     estimated scf accuracy    <          8.0E-09 Ry

     The total energy is the sum of the following terms:

     one-electron contribution =    -347.35359105 Ry
     hartree contribution      =     193.09163150 Ry
     xc contribution           =     -97.97682304 Ry
     ewald contribution        =    -379.25247568 Ry

     convergence has been achieved in   8 iterations

     Forces acting on atoms (cartesian axes, Ry/au):

     atom    1 type  1   force =     0.00000000    0.00000000    0.00000000
     atom    2 type  1   force =     0.00000000    0.00000000    0.00000000
     atom    3 type  1   force =     0.00000000    0.00000000   -0.00000000
     atom    4 type  1   force =     0.00000000   -0.00000000   -0.00000000
     atom    5 type  2   force =     0.00000000    0.00000000    0.00000000
     atom    6 type  2   force =     0.00000000    0.00000000   -0.00000000
     atom    7 type  2   force =     0.00000000    0.00000000    0.00000000
     atom    8 type  2   force =     0.00000000    0.00000000    0.00000000

     Total force =     0.000000     Total SCF correction =     0.000000

     Writing output data file MgO_045_8.save/
 
     init_run     :      0.18s CPU      0.20s WALL (       1 calls)
     electrons    :      1.27s CPU      1.43s WALL (       1 calls)
     forces       :      0.06s CPU      0.06s WALL (       1 calls)

     Called by init_run:
     wfcinit      :      0.04s CPU      0.05s WALL (       1 calls)
     potinit      :      0.02s CPU      0.02s WALL (       1 calls)
     hinit0       :      0.07s CPU      0.08s WALL (       1 calls)

     Called by electrons:
     c_bands      :      0.82s CPU      0.86s WALL (       8 calls)
     sum_band     :      0.25s CPU      0.30s WALL (       8 calls)
     v_of_rho     :      0.05s CPU      0.05s WALL (       9 calls)
     newd         :      0.15s CPU      0.21s WALL (       9 calls)
     mix_rho      :      0.01s CPU      0.01s WALL (       8 calls)

     Called by c_bands:
     init_us_2    :      0.01s CPU      0.01s WALL (      72 calls)
     cegterg      :      0.77s CPU      0.81s WALL (      32 calls)

     Called by sum_band:
     sum_band:bec :      0.00s CPU      0.00s WALL (      32 calls)
     addusdens    :      0.13s CPU      0.18s WALL (       8 calls)

     Called by *egterg:
     h_psi        :      0.48s CPU      0.51s WALL (     107 calls)
     s_psi        :      0.03s CPU      0.03s WALL (     107 calls)
     g_psi        :      0.00s CPU      0.00s WALL (      71 calls)
     cdiaghg      :      0.22s CPU      0.22s WALL (     103 calls)

     Called by h_psi:
     h_psi:pot    :      0.48s CPU      0.51s WALL (     107 calls)
     h_psi:calbec :      0.04s CPU      0.04s WALL (     107 calls)
     vloc_psi     :      0.40s CPU      0.43s WALL (     107 calls)
     add_vuspsi   :      0.03s CPU      0.03s WALL (     107 calls)

     General routines
     calbec       :      0.06s CPU      0.06s WALL (     155 calls)
     fft          :      0.04s CPU      0.04s WALL (     126 calls)
     ffts         :      0.00s CPU      0.00s WALL (      17 calls)
     fftw         :      0.45s CPU      0.48s WALL (    6422 calls)
     interpolate  :      0.00s CPU      0.00s WALL (       9 calls)
 
     Parallel routines
     fft_scatt_xy :      0.04s CPU      0.04s WALL (    6565 calls)
     fft_scatt_yz :      0.30s CPU      0.32s WALL (    6565 calls)
 
     PWSCF        :      1.64s CPU      2.15s WALL

 
   This run was terminated on:  18: 1:27   9Sep2020            

=------------------------------------------------------------------------------=
   JOB DONE.
=------------------------------------------------------------------------------=

     Program PWSCF v.6.4.1 starts on  9Sep2020 at 18: 1:28 

     This program is part of the open-source Quantum ESPRESSO suite
     for quantum simulation of materials; please cite
         "P. Giannozzi et al., J. Phys.:Condens. Matter 21 395502 (2009);
         "P. Giannozzi et al., J. Phys.:Condens. Matter 29 465901 (2017);
          URL http://www.quantum-espresso.org", 
     in publications or presentations arising from this work. More details at
     http://www.quantum-espresso.org/quote

     Parallel version (MPI & OpenMP), running on      20 processor cores
     Number of MPI processes:                20
     Threads/MPI process:                     1

     MPI processes distributed on     1 nodes
     R & G space division:  proc/nbgrp/npool/nimage =      20
     Reading input from /home/hpc/rzku/phyv025h/Exercise_sheet_1/Exercise_1/1_d/MgO_045_9.in

     Current dimensions of program PWSCF are:
     Max number of different atomic species (ntypx) = 10
     Max number of k-points (npk) =  40000
     Max angular momentum in pseudopotentials (lmaxx) =  3

     IMPORTANT: XC functional enforced from input :
     Exchange-correlation      = PBE ( 1  4  3  4 0 0)
     Any further DFT definition will be discarded
     Please, verify this is what you really want


     Subspace diagonalization in iterative solution of the eigenvalue problem:
     a serial algorithm will be used

     Found symmetry operation: I + ( -0.5000 -0.5000  0.0000)
     This is a supercell, fractional translations are disabled
     Message from routine setup:
     DEPRECATED: symmetry with ibrav=0, use correct ibrav instead
 
     Parallelization info
     --------------------
     sticks:   dense  smooth     PW     G-vecs:    dense   smooth      PW
     Min         101      44     13                 3461     1018     155
     Max         102      46     14                 3464     1021     157
     Sum        2029     889    261                69239    20377    3119
 


     bravais-lattice index     =            0
     lattice parameter (alat)  =       7.9557  a.u.
     unit-cell volume          =     503.5503 (a.u.)^3
     number of atoms/cell      =            8
     number of atomic types    =            2
     number of electrons       =        64.00
     number of Kohn-Sham states=           32
     kinetic-energy cutoff     =      45.0000  Ry
     charge density cutoff     =     405.0000  Ry
     convergence threshold     =      1.0E-08
     mixing beta               =       0.7000
     number of iterations used =            8  plain     mixing
     Exchange-correlation      = PBE ( 1  4  3  4 0 0)

     celldm(1)=   7.955747  celldm(2)=   0.000000  celldm(3)=   0.000000
     celldm(4)=   0.000000  celldm(5)=   0.000000  celldm(6)=   0.000000

     crystal axes: (cart. coord. in units of alat)
               a(1) = (   1.000000   0.000000   0.000000 )  
               a(2) = (   0.000000   1.000000   0.000000 )  
               a(3) = (   0.000000   0.000000   1.000000 )  

     reciprocal axes: (cart. coord. in units 2 pi/alat)
               b(1) = (  1.000000  0.000000  0.000000 )  
               b(2) = (  0.000000  1.000000  0.000000 )  
               b(3) = (  0.000000  0.000000  1.000000 )  


     PseudoPot. # 1 for Mg read from file:
     ./Mg.uspp.UPF
     MD5 check sum: 8ffbd8f729fef71095aac5bd8316fb1f
     Pseudo is Ultrasoft, Zval = 10.0
     Generated by new atomic code, or converted to UPF format
     Using radial grid of  821 points,  7 beta functions with: 
                l(1) =   0
                l(2) =   0
                l(3) =   0
                l(4) =   1
                l(5) =   1
                l(6) =   2
                l(7) =   2
     Q(r) pseudized with  8 coefficients,  rinner =    1.200   1.200   1.200
                                                       1.200   1.200

     PseudoPot. # 2 for O  read from file:
     ./O.uspp.UPF
     MD5 check sum: 734c27235a0248c51dbae37a1fbe46ec
     Pseudo is Ultrasoft + core correction, Zval =  6.0
     Generated by new atomic code, or converted to UPF format
     Using radial grid of  737 points,  5 beta functions with: 
                l(1) =   0
                l(2) =   0
                l(3) =   1
                l(4) =   1
                l(5) =   2
     Q(r) pseudized with  8 coefficients,  rinner =    0.900   0.900   0.900
                                                       0.900   0.900

     atomic species   valence    mass     pseudopotential
        Mg            10.00    24.30500     Mg( 1.00)
        O              6.00    15.99900     O ( 1.00)

     48 Sym. Ops., with inversion, found



   Cartesian axes

     site n.     atom                  positions (alat units)
         1           Mg  tau(   1) = (   0.0000000   0.0000000   0.0000000  )
         2           Mg  tau(   2) = (   0.5000000   0.5000000   0.0000000  )
         3           Mg  tau(   3) = (   0.5000000   0.0000000   0.5000000  )
         4           Mg  tau(   4) = (   0.0000000   0.5000000   0.5000000  )
         5           O   tau(   5) = (   0.5000000   0.0000000   0.0000000  )
         6           O   tau(   6) = (   0.0000000   0.5000000   0.0000000  )
         7           O   tau(   7) = (   0.0000000   0.0000000   0.5000000  )
         8           O   tau(   8) = (   0.5000000   0.5000000   0.5000000  )

     number of k points=     4
                       cart. coord. in units 2pi/alat
        k(    1) = (   0.0000000   0.0000000   0.0000000), wk =   0.0740741
        k(    2) = (   0.0000000   0.0000000   0.3333333), wk =   0.4444444
        k(    3) = (   0.0000000   0.3333333   0.3333333), wk =   0.8888889
        k(    4) = (   0.3333333   0.3333333   0.3333333), wk =   0.5925926

     Dense  grid:    69239 G-vectors     FFT dimensions: (  54,  54,  54)

     Smooth grid:    20377 G-vectors     FFT dimensions: (  36,  36,  36)

     Estimated max dynamical RAM per process >      20.19 MB

     Estimated total dynamical RAM >     403.80 MB

     Check: negative core charge=   -0.000002

     Initial potential from superposition of free atoms

     starting charge   62.79908, renormalised to   64.00000
     Starting wfcs are   36 randomized atomic wfcs

     total cpu time spent up to now is        0.3 secs

     Self-consistent Calculation

     iteration #  1     ecut=    45.00 Ry     beta= 0.70
     Davidson diagonalization with overlap
     ethr =  1.00E-02,  avg # of iterations =  2.0

     total cpu time spent up to now is        0.5 secs

     total energy              =    -630.82585156 Ry
     Harris-Foulkes estimate   =    -632.00926361 Ry
     estimated scf accuracy    <       1.54225334 Ry

     iteration #  2     ecut=    45.00 Ry     beta= 0.70
     Davidson diagonalization with overlap
     ethr =  2.41E-03,  avg # of iterations =  2.8

     total cpu time spent up to now is        0.8 secs

     total energy              =    -631.21103644 Ry
     Harris-Foulkes estimate   =    -631.88574993 Ry
     estimated scf accuracy    <       1.40051808 Ry

     iteration #  3     ecut=    45.00 Ry     beta= 0.70
     Davidson diagonalization with overlap
     ethr =  2.19E-03,  avg # of iterations =  2.0

     total cpu time spent up to now is        0.9 secs

     total energy              =    -631.48971872 Ry
     Harris-Foulkes estimate   =    -631.49324722 Ry
     estimated scf accuracy    <       0.01068345 Ry

     iteration #  4     ecut=    45.00 Ry     beta= 0.70
     Davidson diagonalization with overlap
     ethr =  1.67E-05,  avg # of iterations =  2.0

[...]

   -64.4631 -64.4573 -64.4544 -64.4544 -31.2725 -31.2725 -31.2670 -31.2502
   -31.2502 -31.2406 -31.2406 -31.2319 -31.2319 -31.2303 -31.2175 -31.2175
    -9.0014  -8.2267  -7.7875  -7.7875   4.3034   4.3034   4.4176   5.6127
     5.6127   6.1764   6.1765   6.2609   6.7921   6.7921   7.4572   7.4572

          k = 0.0000 0.3333 0.3333 (  2562 PWs)   bands (ev):

   -64.4609 -64.4565 -64.4565 -64.4551 -31.2716 -31.2716 -31.2666 -31.2623
   -31.2524 -31.2420 -31.2420 -31.2276 -31.2266 -31.2266 -31.2256 -31.2131
    -8.6813  -8.0691  -8.0691  -7.8462   4.3125   4.3126   4.6257   4.7939
     5.2222   6.0014   6.0015   6.8287   6.8287   6.8463   6.9102   7.5260

          k = 0.3333 0.3333 0.3333 (  2542 PWs)   bands (ev):

   -64.4594 -64.4565 -64.4565 -64.4565 -31.2867 -31.2867 -31.2867 -31.2753
   -31.2309 -31.2309 -31.2309 -31.2239 -31.2239 -31.2239 -31.2166 -31.2166
    -8.4330  -8.0091  -8.0091  -8.0091   3.6798   3.6799   3.6799   4.1767
     6.4085   6.4085   6.4086   7.0041   7.0041   7.0041   7.3434   7.3434

     highest occupied level (ev):     7.8431

!    total energy              =    -631.49125410 Ry
     Harris-Foulkes estimate   =    -631.49125410 Ry
     estimated scf accuracy    <          8.1E-09 Ry

     The total energy is the sum of the following terms:

     one-electron contribution =    -347.35340007 Ry
     hartree contribution      =     193.09140456 Ry
     xc contribution           =     -97.97678291 Ry
     ewald contribution        =    -379.25247568 Ry

     convergence has been achieved in   8 iterations

     Forces acting on atoms (cartesian axes, Ry/au):

     atom    1 type  1   force =     0.00000000    0.00000000    0.00000000
     atom    2 type  1   force =     0.00000000    0.00000000   -0.00000000
     atom    3 type  1   force =     0.00000000    0.00000000    0.00000000
     atom    4 type  1   force =     0.00000000    0.00000000   -0.00000000
     atom    5 type  2   force =     0.00000000    0.00000000    0.00000000
     atom    6 type  2   force =     0.00000000    0.00000000    0.00000000
     atom    7 type  2   force =     0.00000000    0.00000000    0.00000000
     atom    8 type  2   force =     0.00000000    0.00000000    0.00000000

     Total force =     0.000000     Total SCF correction =     0.000000

     Writing output data file MgO_045_11.save/
 
     init_run     :      0.25s CPU      0.27s WALL (       1 calls)
     electrons    :      1.46s CPU      1.66s WALL (       1 calls)
     forces       :      0.08s CPU      0.09s WALL (       1 calls)

     Called by init_run:
     wfcinit      :      0.04s CPU      0.04s WALL (       1 calls)
     potinit      :      0.02s CPU      0.02s WALL (       1 calls)
     hinit0       :      0.10s CPU      0.10s WALL (       1 calls)

     Called by electrons:
     c_bands      :      0.81s CPU      0.84s WALL (       8 calls)
     sum_band     :      0.35s CPU      0.43s WALL (       8 calls)
     v_of_rho     :      0.07s CPU      0.08s WALL (       9 calls)
     newd         :      0.24s CPU      0.31s WALL (       9 calls)
     mix_rho      :      0.01s CPU      0.01s WALL (       8 calls)

     Called by c_bands:
     init_us_2    :      0.01s CPU      0.01s WALL (      72 calls)
     cegterg      :      0.75s CPU      0.78s WALL (      32 calls)

     Called by sum_band:
     sum_band:bec :      0.00s CPU      0.00s WALL (      32 calls)
     addusdens    :      0.24s CPU      0.31s WALL (       8 calls)

     Called by *egterg:
     h_psi        :      0.47s CPU      0.50s WALL (     107 calls)
     s_psi        :      0.03s CPU      0.03s WALL (     107 calls)
     g_psi        :      0.00s CPU      0.00s WALL (      71 calls)
     cdiaghg      :      0.21s CPU      0.21s WALL (     103 calls)

     Called by h_psi:
     h_psi:pot    :      0.46s CPU      0.50s WALL (     107 calls)
     h_psi:calbec :      0.03s CPU      0.04s WALL (     107 calls)
     vloc_psi     :      0.40s CPU      0.42s WALL (     107 calls)
     add_vuspsi   :      0.03s CPU      0.03s WALL (     107 calls)

     General routines
     calbec       :      0.05s CPU      0.06s WALL (     155 calls)
     fft          :      0.06s CPU      0.06s WALL (     126 calls)
     ffts         :      0.00s CPU      0.00s WALL (      17 calls)
     fftw         :      0.45s CPU      0.47s WALL (    6418 calls)
     interpolate  :      0.01s CPU      0.01s WALL (       9 calls)
 
     Parallel routines
     fft_scatt_xy :      0.04s CPU      0.04s WALL (    6561 calls)
     fft_scatt_yz :      0.30s CPU      0.32s WALL (    6561 calls)
 
     PWSCF        :      1.92s CPU      2.48s WALL

 
   This run was terminated on:  18: 1:37   9Sep2020            

=------------------------------------------------------------------------------=
   JOB DONE.
=------------------------------------------------------------------------------=

     Program PWSCF v.6.4.1 starts on  9Sep2020 at 18: 1:38 

     This program is part of the open-source Quantum ESPRESSO suite
     for quantum simulation of materials; please cite
         "P. Giannozzi et al., J. Phys.:Condens. Matter 21 395502 (2009);
         "P. Giannozzi et al., J. Phys.:Condens. Matter 29 465901 (2017);
          URL http://www.quantum-espresso.org", 
     in publications or presentations arising from this work. More details at
     http://www.quantum-espresso.org/quote

     Parallel version (MPI & OpenMP), running on      20 processor cores
     Number of MPI processes:                20
     Threads/MPI process:                     1

     MPI processes distributed on     1 nodes
     R & G space division:  proc/nbgrp/npool/nimage =      20
     Reading input from /home/hpc/rzku/phyv025h/Exercise_sheet_1/Exercise_1/1_d/MgO_045_12.in

     Current dimensions of program PWSCF are:
     Max number of different atomic species (ntypx) = 10
     Max number of k-points (npk) =  40000
     Max angular momentum in pseudopotentials (lmaxx) =  3

     IMPORTANT: XC functional enforced from input :
     Exchange-correlation      = PBE ( 1  4  3  4 0 0)
     Any further DFT definition will be discarded
     Please, verify this is what you really want


     Subspace diagonalization in iterative solution of the eigenvalue problem:
     a serial algorithm will be used

     Found symmetry operation: I + ( -0.5000 -0.5000  0.0000)
     This is a supercell, fractional translations are disabled
     Message from routine setup:
     DEPRECATED: symmetry with ibrav=0, use correct ibrav instead
 
     Parallelization info
     --------------------
     sticks:   dense  smooth     PW     G-vecs:    dense   smooth      PW
     Min         136      44     13                 5320     1018     155
     Max         137      46     14                 5324     1021     157
     Sum        2725     889    261               106431    20377    3119
 


     bravais-lattice index     =            0
     lattice parameter (alat)  =       7.9557  a.u.
     unit-cell volume          =     503.5503 (a.u.)^3
     number of atoms/cell      =            8
     number of atomic types    =            2
     number of electrons       =        64.00
     number of Kohn-Sham states=           32
     kinetic-energy cutoff     =      45.0000  Ry
     charge density cutoff     =     540.0000  Ry
     convergence threshold     =      1.0E-08
     mixing beta               =       0.7000
     number of iterations used =            8  plain     mixing
     Exchange-correlation      = PBE ( 1  4  3  4 0 0)

     celldm(1)=   7.955747  celldm(2)=   0.000000  celldm(3)=   0.000000
     celldm(4)=   0.000000  celldm(5)=   0.000000  celldm(6)=   0.000000

     crystal axes: (cart. coord. in units of alat)
               a(1) = (   1.000000   0.000000   0.000000 )  
               a(2) = (   0.000000   1.000000   0.000000 )  
               a(3) = (   0.000000   0.000000   1.000000 )  

     reciprocal axes: (cart. coord. in units 2 pi/alat)
               b(1) = (  1.000000  0.000000  0.000000 )  
               b(2) = (  0.000000  1.000000  0.000000 )  
               b(3) = (  0.000000  0.000000  1.000000 )  


     PseudoPot. # 1 for Mg read from file:
     ./Mg.uspp.UPF
     MD5 check sum: 8ffbd8f729fef71095aac5bd8316fb1f
     Pseudo is Ultrasoft, Zval = 10.0
     Generated by new atomic code, or converted to UPF format
     Using radial grid of  821 points,  7 beta functions with: 
                l(1) =   0
                l(2) =   0
                l(3) =   0
                l(4) =   1
                l(5) =   1
                l(6) =   2
                l(7) =   2
     Q(r) pseudized with  8 coefficients,  rinner =    1.200   1.200   1.200
                                                       1.200   1.200

     PseudoPot. # 2 for O  read from file:
     ./O.uspp.UPF
     MD5 check sum: 734c27235a0248c51dbae37a1fbe46ec
     Pseudo is Ultrasoft + core correction, Zval =  6.0
     Generated by new atomic code, or converted to UPF format
     Using radial grid of  737 points,  5 beta functions with: 
                l(1) =   0
                l(2) =   0
                l(3) =   1
                l(4) =   1
                l(5) =   2
     Q(r) pseudized with  8 coefficients,  rinner =    0.900   0.900   0.900
                                                       0.900   0.900

     atomic species   valence    mass     pseudopotential
        Mg            10.00    24.30500     Mg( 1.00)
        O              6.00    15.99900     O ( 1.00)

     48 Sym. Ops., with inversion, found



   Cartesian axes

     site n.     atom                  positions (alat units)
         1           Mg  tau(   1) = (   0.0000000   0.0000000   0.0000000  )
         2           Mg  tau(   2) = (   0.5000000   0.5000000   0.0000000  )
         3           Mg  tau(   3) = (   0.5000000   0.0000000   0.5000000  )
         4           Mg  tau(   4) = (   0.0000000   0.5000000   0.5000000  )
         5           O   tau(   5) = (   0.5000000   0.0000000   0.0000000  )
         6           O   tau(   6) = (   0.0000000   0.5000000   0.0000000  )
         7           O   tau(   7) = (   0.0000000   0.0000000   0.5000000  )
         8           O   tau(   8) = (   0.5000000   0.5000000   0.5000000  )

     number of k points=     4
                       cart. coord. in units 2pi/alat
        k(    1) = (   0.0000000   0.0000000   0.0000000), wk =   0.0740741
        k(    2) = (   0.0000000   0.0000000   0.3333333), wk =   0.4444444
        k(    3) = (   0.0000000   0.3333333   0.3333333), wk =   0.8888889
        k(    4) = (   0.3333333   0.3333333   0.3333333), wk =   0.5925926

     Dense  grid:   106431 G-vectors     FFT dimensions: (  60,  60,  60)

     Smooth grid:    20377 G-vectors     FFT dimensions: (  36,  36,  36)

     Estimated max dynamical RAM per process >      28.46 MB

     Estimated total dynamical RAM >     569.14 MB

     Check: negative core charge=   -0.000003

     Initial potential from superposition of free atoms

     starting charge   62.79908, renormalised to   64.00000
     Starting wfcs are   36 randomized atomic wfcs

     total cpu time spent up to now is        0.4 secs

     Self-consistent Calculation

     iteration #  1     ecut=    45.00 Ry     beta= 0.70
     Davidson diagonalization with overlap
     ethr =  1.00E-02,  avg # of iterations =  2.0

     total cpu time spent up to now is        0.6 secs

     total energy              =    -630.82562409 Ry
     Harris-Foulkes estimate   =    -632.00917968 Ry
     estimated scf accuracy    <       1.54253919 Ry

     iteration #  2     ecut=    45.00 Ry     beta= 0.70
     Davidson diagonalization with overlap
     ethr =  2.41E-03,  avg # of iterations =  2.8

     total cpu time spent up to now is        0.9 secs

     total energy              =    -631.21099994 Ry
     Harris-Foulkes estimate   =    -631.88581858 Ry
     estimated scf accuracy    <       1.40095607 Ry

     iteration #  3     ecut=    45.00 Ry     beta= 0.70
     Davidson diagonalization with overlap
     ethr =  2.19E-03,  avg # of iterations =  2.0

     total cpu time spent up to now is        1.1 secs

     total energy              =    -631.48971755 Ry
     Harris-Foulkes estimate   =    -631.49323981 Ry
     estimated scf accuracy    <       0.01066928 Ry

     iteration #  4     ecut=    45.00 Ry     beta= 0.70
     Davidson diagonalization with overlap
     ethr =  1.67E-05,  avg # of iterations =  2.0

     total cpu time spent up to now is        1.3 secs

     total energy              =    -631.49122005 Ry
     Harris-Foulkes estimate   =    -631.49122562 Ry
     estimated scf accuracy    <       0.00039763 Ry

     iteration #  5     ecut=    45.00 Ry     beta= 0.70
     Davidson diagonalization with overlap
     ethr =  6.21E-07,  avg # of iterations =  2.0

     total cpu time spent up to now is        1.5 secs

     total energy              =    -631.49125088 Ry
     Harris-Foulkes estimate   =    -631.49125019 Ry
     estimated scf accuracy    <       0.00000512 Ry

     iteration #  6     ecut=    45.00 Ry     beta= 0.70
     Davidson diagonalization with overlap
     ethr =  8.00E-09,  avg # of iterations =  2.2

     total cpu time spent up to now is        1.7 secs

     total energy              =    -631.49125159 Ry
     Harris-Foulkes estimate   =    -631.49125217 Ry
     estimated scf accuracy    <       0.00000167 Ry

     iteration #  7     ecut=    45.00 Ry     beta= 0.70
     Davidson diagonalization with overlap
     ethr =  2.61E-09,  avg # of iterations =  2.8

     total cpu time spent up to now is        1.9 secs

     total energy              =    -631.49125186 Ry
     Harris-Foulkes estimate   =    -631.49125194 Ry
     estimated scf accuracy    <       0.00000025 Ry

     iteration #  8     ecut=    45.00 Ry     beta= 0.70
     Davidson diagonalization with overlap
     ethr =  3.86E-10,  avg # of iterations =  2.0

     total cpu time spent up to now is        2.1 secs

     End of self-consistent calculation

          k = 0.0000 0.0000 0.0000 (  2553 PWs)   bands (ev):

   -64.4660 -64.4543 -64.4543 -64.4543 -31.2836 -31.2836 -31.2836 -31.2391
   -31.2391 -31.2391 -31.2391 -31.2391 -31.2391 -31.2103 -31.2103 -31.2103
    -9.3815  -7.8359  -7.8359  -7.8358   3.7817   3.7817   3.7817   6.5004
     6.5004   6.5004   6.5004   6.5004   6.5004   7.8431   7.8431   7.8431

          k = 0.0000 0.0000 0.3333 (  2601 PWs)   bands (ev):

   -64.4631 -64.4572 -64.4543 -64.4543 -31.2725 -31.2725 -31.2669 -31.2502
   -31.2502 -31.2406 -31.2406 -31.2319 -31.2319 -31.2303 -31.2175 -31.2175
    -9.0014  -8.2267  -7.7876  -7.7875   4.3034   4.3034   4.4176   5.6127
     5.6127   6.1764   6.1765   6.2609   6.7920   6.7920   7.4571   7.4571

          k = 0.0000 0.3333 0.3333 (  2562 PWs)   bands (ev):

   -64.4609 -64.4565 -64.4565 -64.4551 -31.2716 -31.2716 -31.2666 -31.2623
   -31.2523 -31.2420 -31.2420 -31.2276 -31.2265 -31.2265 -31.2256 -31.2131
    -8.6813  -8.0691  -8.0691  -7.8462   4.3125   4.3126   4.6257   4.7939
     5.2222   6.0014   6.0014   6.8286   6.8287   6.8463   6.9101   7.5259

          k = 0.3333 0.3333 0.3333 (  2542 PWs)   bands (ev):

   -64.4594 -64.4565 -64.4565 -64.4565 -31.2866 -31.2866 -31.2866 -31.2753
   -31.2308 -31.2308 -31.2308 -31.2238 -31.2238 -31.2238 -31.2166 -31.2166
    -8.4330  -8.0092  -8.0092  -8.0091   3.6798   3.6799   3.6799   4.1766
     6.4085   6.4085   6.4086   7.0041   7.0041   7.0041   7.3433   7.3433

     highest occupied level (ev):     7.8431

!    total energy              =    -631.49125188 Ry
     Harris-Foulkes estimate   =    -631.49125188 Ry
     estimated scf accuracy    <          8.1E-09 Ry

     The total energy is the sum of the following terms:

     one-electron contribution =    -347.35342968 Ry
     hartree contribution      =     193.09143804 Ry
     xc contribution           =     -97.97678456 Ry
     ewald contribution        =    -379.25247568 Ry

     convergence has been achieved in   8 iterations

     Forces acting on atoms (cartesian axes, Ry/au):

     atom    1 type  1   force =     0.00000000    0.00000000   -0.00000000
     atom    2 type  1   force =     0.00000000    0.00000000    0.00000000
     atom    3 type  1   force =     0.00000000    0.00000000    0.00000000
     atom    4 type  1   force =     0.00000000    0.00000000   -0.00000000
     atom    5 type  2   force =     0.00000000    0.00000000    0.00000000
     atom    6 type  2   force =     0.00000000    0.00000000    0.00000000
     atom    7 type  2   force =     0.00000000    0.00000000    0.00000000
     atom    8 type  2   force =     0.00000000    0.00000000    0.00000000

     Total force =     0.000000     Total SCF correction =     0.000000

     Writing output data file MgO_045_12.save/
 
     init_run     :      0.27s CPU      0.30s WALL (       1 calls)
     electrons    :      1.52s CPU      1.75s WALL (       1 calls)
     forces       :      0.09s CPU      0.10s WALL (       1 calls)

     Called by init_run:
     wfcinit      :      0.04s CPU      0.05s WALL (       1 calls)
     potinit      :      0.02s CPU      0.03s WALL (       1 calls)
     hinit0       :      0.10s CPU      0.11s WALL (       1 calls)

     Called by electrons:
     c_bands      :      0.81s CPU      0.84s WALL (       8 calls)
     sum_band     :      0.37s CPU      0.47s WALL (       8 calls)
     v_of_rho     :      0.08s CPU      0.08s WALL (       9 calls)
     newd         :      0.28s CPU      0.35s WALL (       9 calls)
     mix_rho      :      0.01s CPU      0.01s WALL (       8 calls)

     Called by c_bands:
     init_us_2    :      0.01s CPU      0.01s WALL (      72 calls)
     cegterg      :      0.76s CPU      0.79s WALL (      32 calls)

     Called by sum_band:
     sum_band:bec :      0.00s CPU      0.00s WALL (      32 calls)
     addusdens    :      0.26s CPU      0.35s WALL (       8 calls)

     Called by *egterg:
     h_psi        :      0.47s CPU      0.50s WALL (     107 calls)
     s_psi        :      0.03s CPU      0.03s WALL (     107 calls)
     g_psi        :      0.00s CPU      0.00s WALL (      71 calls)
     cdiaghg      :      0.21s CPU      0.21s WALL (     103 calls)

     Called by h_psi:
     h_psi:pot    :      0.47s CPU      0.50s WALL (     107 calls)
     h_psi:calbec :      0.04s CPU      0.04s WALL (     107 calls)
     vloc_psi     :      0.40s CPU      0.43s WALL (     107 calls)
     add_vuspsi   :      0.03s CPU      0.03s WALL (     107 calls)

     General routines
     calbec       :      0.06s CPU      0.06s WALL (     155 calls)
     fft          :      0.06s CPU      0.06s WALL (     126 calls)
     ffts         :      0.00s CPU      0.00s WALL (      17 calls)
     fftw         :      0.45s CPU      0.48s WALL (    6418 calls)
     interpolate  :      0.01s CPU      0.01s WALL (       9 calls)
 
     Parallel routines
     fft_scatt_xy :      0.04s CPU      0.05s WALL (    6561 calls)
     fft_scatt_yz :      0.30s CPU      0.32s WALL (    6561 calls)
 
     PWSCF        :      2.04s CPU      2.67s WALL

 
   This run was terminated on:  18: 1:40   9Sep2020            

=------------------------------------------------------------------------------=
   JOB DONE.
=------------------------------------------------------------------------------=
Starting epilogue... Wed Sep  9 18:01:41 CEST 2020
=== JOB_STATISTICS ===
=== current date     : Wed Sep  9 18:01:41 CEST 2020
= Job-ID             : 1346737.eadm
= Job-Name           : MoS2.phon
= Queue              : devel
= PBS_O_WORKDIR      : /home/hpc/rzku/phyv025h/Exercise_sheet_1/Exercise_1
= Requested resources: ncpus=1,neednodes=2:ppn=40,nodes=2:ppn=40,walltime=01:00:00
= Used resources     : cput=00:06:20,mem=39004kb,vmem=114344kb,walltime=00:00:28
= Node list          : e0108,e0107
= AccessKey          : 1e98bea5
======================
Power management available, setting all CPUs to ondemand govenor
End of epilogue: Wed Sep  9 18:01:41 CEST 2020
