Starting prologue... Wed Sep 9 17:29:59 CEST 2020
Master node: e0108
Kill all process from other users
Adjust oom killer config
Clearing buffers and caches on the nodes.
Power management available, enabling ondemand governor
End of prologue: Wed Sep  9 17:30:05 CEST 2020
/home/hpc/rzku/phyv025h/Exercise_sheet_1/Exercise_1

     Program PWSCF v.6.4.1 starts on  9Sep2020 at 17:30:13 

     This program is part of the open-source Quantum ESPRESSO suite
     for quantum simulation of materials; please cite
         "P. Giannozzi et al., J. Phys.:Condens. Matter 21 395502 (2009);
         "P. Giannozzi et al., J. Phys.:Condens. Matter 29 465901 (2017);
          URL http://www.quantum-espresso.org", 
     in publications or presentations arising from this work. More details at
     http://www.quantum-espresso.org/quote

     Parallel version (MPI & OpenMP), running on      20 processor cores
     Number of MPI processes:                20
     Threads/MPI process:                     1

     MPI processes distributed on     1 nodes
     R & G space division:  proc/nbgrp/npool/nimage =      20
     Reading input from /home/hpc/rzku/phyv025h/Exercise_sheet_1/Exercise_1/1_d/MgO_030_8.in

     Current dimensions of program PWSCF are:
     Max number of different atomic species (ntypx) = 10
     Max number of k-points (npk) =  40000
     Max angular momentum in pseudopotentials (lmaxx) =  3

     IMPORTANT: XC functional enforced from input :
     Exchange-correlation      = PBE ( 1  4  3  4 0 0)
     Any further DFT definition will be discarded
     Please, verify this is what you really want


     Subspace diagonalization in iterative solution of the eigenvalue problem:
     a serial algorithm will be used

     Found symmetry operation: I + ( -0.5000 -0.5000  0.0000)
     This is a supercell, fractional translations are disabled
     Message from routine setup:
     DEPRECATED: symmetry with ibrav=0, use correct ibrav instead
 
     Parallelization info
     --------------------
     sticks:   dense  smooth     PW     G-vecs:    dense   smooth      PW
     Min          60      29      8                 1572      551      86
     Max          61      30      9                 1577      556      91
     Sum        1201     593    177                31463    11075    1791
 


     bravais-lattice index     =            0
     lattice parameter (alat)  =       7.9557  a.u.
     unit-cell volume          =     503.5503 (a.u.)^3
     number of atoms/cell      =            8
     number of atomic types    =            2
     number of electrons       =        64.00
     number of Kohn-Sham states=           32
     kinetic-energy cutoff     =      30.0000  Ry
     charge density cutoff     =     240.0000  Ry
     convergence threshold     =      1.0E-08
     mixing beta               =       0.7000
     number of iterations used =            8  plain     mixing
     Exchange-correlation      = PBE ( 1  4  3  4 0 0)

     celldm(1)=   7.955747  celldm(2)=   0.000000  celldm(3)=   0.000000
     celldm(4)=   0.000000  celldm(5)=   0.000000  celldm(6)=   0.000000

     crystal axes: (cart. coord. in units of alat)
               a(1) = (   1.000000   0.000000   0.000000 )  
               a(2) = (   0.000000   1.000000   0.000000 )  
               a(3) = (   0.000000   0.000000   1.000000 )  

     reciprocal axes: (cart. coord. in units 2 pi/alat)
               b(1) = (  1.000000  0.000000  0.000000 )  
               b(2) = (  0.000000  1.000000  0.000000 )  
               b(3) = (  0.000000  0.000000  1.000000 )  


     PseudoPot. # 1 for Mg read from file:
     ./Mg.uspp.UPF
     MD5 check sum: 8ffbd8f729fef71095aac5bd8316fb1f
     Pseudo is Ultrasoft, Zval = 10.0
     Generated by new atomic code, or converted to UPF format
     Using radial grid of  821 points,  7 beta functions with: 
                l(1) =   0
                l(2) =   0
                l(3) =   0
                l(4) =   1
                l(5) =   1
                l(6) =   2
                l(7) =   2
     Q(r) pseudized with  8 coefficients,  rinner =    1.200   1.200   1.200
                                                       1.200   1.200

     PseudoPot. # 2 for O  read from file:
     ./O.uspp.UPF
     MD5 check sum: 734c27235a0248c51dbae37a1fbe46ec
     Pseudo is Ultrasoft + core correction, Zval =  6.0
     Generated by new atomic code, or converted to UPF format
     Using radial grid of  737 points,  5 beta functions with: 
                l(1) =   0
                l(2) =   0
                l(3) =   1
                l(4) =   1
                l(5) =   2
     Q(r) pseudized with  8 coefficients,  rinner =    0.900   0.900   0.900
                                                       0.900   0.900

     atomic species   valence    mass     pseudopotential
        Mg            10.00    24.30500     Mg( 1.00)
        O              6.00    15.99900     O ( 1.00)

     48 Sym. Ops., with inversion, found



   Cartesian axes

     site n.     atom                  positions (alat units)
         1           Mg  tau(   1) = (   0.0000000   0.0000000   0.0000000  )
         2           Mg  tau(   2) = (   0.5000000   0.5000000   0.0000000  )
         3           Mg  tau(   3) = (   0.5000000   0.0000000   0.5000000  )
         4           Mg  tau(   4) = (   0.0000000   0.5000000   0.5000000  )
         5           O   tau(   5) = (   0.5000000   0.0000000   0.0000000  )
         6           O   tau(   6) = (   0.0000000   0.5000000   0.0000000  )
         7           O   tau(   7) = (   0.0000000   0.0000000   0.5000000  )
         8           O   tau(   8) = (   0.5000000   0.5000000   0.5000000  )

     number of k points=     4
                       cart. coord. in units 2pi/alat
        k(    1) = (   0.0000000   0.0000000   0.0000000), wk =   0.0740741
        k(    2) = (   0.0000000   0.0000000   0.3333333), wk =   0.4444444
        k(    3) = (   0.0000000   0.3333333   0.3333333), wk =   0.8888889
        k(    4) = (   0.3333333   0.3333333   0.3333333), wk =   0.5925926

     Dense  grid:    31463 G-vectors     FFT dimensions: (  40,  40,  40)

     Smooth grid:    11075 G-vectors     FFT dimensions: (  27,  27,  27)

     Estimated max dynamical RAM per process >      10.91 MB

     Estimated total dynamical RAM >     218.28 MB

     Check: negative core charge=   -0.000003

     Initial potential from superposition of free atoms

     starting charge   62.79908, renormalised to   64.00000
     Starting wfcs are   36 randomized atomic wfcs

     total cpu time spent up to now is        0.6 secs

     Self-consistent Calculation

     iteration #  1     ecut=    30.00 Ry     beta= 0.70
     Davidson diagonalization with overlap
     ethr =  1.00E-02,  avg # of iterations =  2.0

     total cpu time spent up to now is        0.8 secs

     total energy              =    -630.77233569 Ry
     Harris-Foulkes estimate   =    -631.93568454 Ry
     estimated scf accuracy    <       1.51856251 Ry

     iteration #  2     ecut=    30.00 Ry     beta= 0.70
     Davidson diagonalization with overlap
     ethr =  2.37E-03,  avg # of iterations =  2.8

     total cpu time spent up to now is        0.9 secs

     total energy              =    -631.14770864 Ry
     Harris-Foulkes estimate   =    -631.79131034 Ry
     estimated scf accuracy    <       1.32691827 Ry

     iteration #  3     ecut=    30.00 Ry     beta= 0.70
     Davidson diagonalization with overlap
     ethr =  2.07E-03,  avg # of iterations =  2.0

     total cpu time spent up to now is        1.0 secs

     total energy              =    -631.41541027 Ry
     Harris-Foulkes estimate   =    -631.41905675 Ry
     estimated scf accuracy    <       0.01107724 Ry

     iteration #  4     ecut=    30.00 Ry     beta= 0.70
     Davidson diagonalization with overlap
     ethr =  1.73E-05,  avg # of iterations =  2.0

     total cpu time spent up to now is        1.2 secs

     total energy              =    -631.41695386 Ry
     Harris-Foulkes estimate   =    -631.41694066 Ry
     estimated scf accuracy    <       0.00039549 Ry

     iteration #  5     ecut=    30.00 Ry     beta= 0.70
     Davidson diagonalization with overlap
     ethr =  6.18E-07,  avg # of iterations =  2.0

     total cpu time spent up to now is        1.3 secs

     total energy              =    -631.41698404 Ry
     Harris-Foulkes estimate   =    -631.41698284 Ry
     estimated scf accuracy    <       0.00000474 Ry

     iteration #  6     ecut=    30.00 Ry     beta= 0.70
     Davidson diagonalization with overlap
     ethr =  7.41E-09,  avg # of iterations =  2.5

     total cpu time spent up to now is        1.4 secs

     total energy              =    -631.41698482 Ry
     Harris-Foulkes estimate   =    -631.41698502 Ry
     estimated scf accuracy    <       0.00000074 Ry

     iteration #  7     ecut=    30.00 Ry     beta= 0.70
     Davidson diagonalization with overlap
     ethr =  1.15E-09,  avg # of iterations =  2.0

     total cpu time spent up to now is        1.5 secs

     total energy              =    -631.41698486 Ry
     Harris-Foulkes estimate   =    -631.41698489 Ry
     estimated scf accuracy    <       0.00000009 Ry

     iteration #  8     ecut=    30.00 Ry     beta= 0.70
     Davidson diagonalization with overlap
     ethr =  1.36E-10,  avg # of iterations =  2.0

     total cpu time spent up to now is        1.6 secs

     End of self-consistent calculation

          k = 0.0000 0.0000 0.0000 (  1365 PWs)   bands (ev):

   -64.5617 -64.5483 -64.5483 -64.5483 -31.3672 -31.3672 -31.3672 -31.3142
   -31.3142 -31.3142 -31.3142 -31.3142 -31.3142 -31.2929 -31.2929 -31.2929
    -9.4013  -7.8596  -7.8596  -7.8596   3.7752   3.7752   3.7752   6.5030
     6.5030   6.5030   6.5030   6.5030   6.5030   7.8383   7.8383   7.8383

          k = 0.0000 0.0000 0.3333 (  1390 PWs)   bands (ev):

   -64.5583 -64.5515 -64.5494 -64.5494 -31.3549 -31.3549 -31.3417 -31.3303
   -31.3303 -31.3218 -31.3218 -31.3130 -31.3130 -31.3113 -31.2993 -31.2993
    -9.0223  -8.2495  -7.8116  -7.8116   4.3002   4.3002   4.4171   5.6093
     5.6093   6.1736   6.1736   6.2575   6.7887   6.7887   7.4543   7.4543

          k = 0.0000 0.3333 0.3333 (  1380 PWs)   bands (ev):

   -64.5551 -64.5505 -64.5505 -64.5504 -31.3516 -31.3496 -31.3496 -31.3429
   -31.3307 -31.3200 -31.3200 -31.3084 -31.3046 -31.3046 -31.3029 -31.2934
    -8.7030  -8.0926  -8.0926  -7.8704   4.3116   4.3116   4.6191   4.7912
     5.2214   6.0016   6.0016   6.8296   6.8297   6.8430   6.9126   7.5255

          k = 0.3333 0.3333 0.3333 (  1412 PWs)   bands (ev):

   -64.5547 -64.5525 -64.5525 -64.5525 -31.3728 -31.3728 -31.3728 -31.3531
   -31.3141 -31.3141 -31.3141 -31.3051 -31.3051 -31.3051 -31.2998 -31.2998
    -8.4556  -8.0331  -8.0330  -8.0330   3.6733   3.6733   3.6733   4.1761
     6.4041   6.4041   6.4041   7.0017   7.0017   7.0017   7.3398   7.3398

     highest occupied level (ev):     7.8383

!    total energy              =    -631.41698487 Ry
     Harris-Foulkes estimate   =    -631.41698487 Ry
     estimated scf accuracy    <          4.1E-09 Ry

     The total energy is the sum of the following terms:

     one-electron contribution =    -347.03545031 Ry
     hartree contribution      =     192.78763595 Ry
     xc contribution           =     -97.91669481 Ry
     ewald contribution        =    -379.25247570 Ry

     convergence has been achieved in   8 iterations

     Forces acting on atoms (cartesian axes, Ry/au):

     atom    1 type  1   force =     0.00000000    0.00000000    0.00000000
     atom    2 type  1   force =     0.00000000    0.00000000   -0.00000000
     atom    3 type  1   force =     0.00000000   -0.00000000    0.00000000
     atom    4 type  1   force =     0.00000000   -0.00000000    0.00000000
     atom    5 type  2   force =     0.00000000    0.00000000    0.00000000
     atom    6 type  2   force =     0.00000000    0.00000000    0.00000000
     atom    7 type  2   force =     0.00000000    0.00000000    0.00000000
     atom    8 type  2   force =     0.00000000    0.00000000    0.00000000

     Total force =     0.000000     Total SCF correction =     0.000000

     Writing output data file MgO_030_8.save/
 
     init_run     :      0.09s CPU      0.20s WALL (       1 calls)
     electrons    :      0.87s CPU      1.12s WALL (       1 calls)
     forces       :      0.04s CPU      0.04s WALL (       1 calls)

     Called by init_run:
     wfcinit      :      0.03s CPU      0.03s WALL (       1 calls)
     potinit      :      0.01s CPU      0.01s WALL (       1 calls)
     hinit0       :      0.04s CPU      0.12s WALL (       1 calls)

     Called by electrons:
     c_bands      :      0.60s CPU      0.67s WALL (       8 calls)
     sum_band     :      0.16s CPU      0.19s WALL (       8 calls)
     v_of_rho     :      0.02s CPU      0.03s WALL (       9 calls)
     newd         :      0.08s CPU      0.10s WALL (       9 calls)
     mix_rho      :      0.00s CPU      0.01s WALL (       8 calls)

     Called by c_bands:
     init_us_2    :      0.01s CPU      0.01s WALL (      72 calls)
     cegterg      :      0.56s CPU      0.64s WALL (      32 calls)

     Called by sum_band:
     sum_band:bec :      0.00s CPU      0.00s WALL (      32 calls)
     addusdens    :      0.08s CPU      0.09s WALL (       8 calls)

     Called by *egterg:
     h_psi        :      0.32s CPU      0.38s WALL (     105 calls)
     s_psi        :      0.02s CPU      0.02s WALL (     105 calls)
     g_psi        :      0.00s CPU      0.00s WALL (      69 calls)
     cdiaghg      :      0.20s CPU      0.21s WALL (     101 calls)

     Called by h_psi:
     h_psi:pot    :      0.32s CPU      0.38s WALL (     105 calls)
     h_psi:calbec :      0.03s CPU      0.03s WALL (     105 calls)
     vloc_psi     :      0.27s CPU      0.33s WALL (     105 calls)
     add_vuspsi   :      0.02s CPU      0.02s WALL (     105 calls)

     General routines
     calbec       :      0.04s CPU      0.04s WALL (     153 calls)
     fft          :      0.02s CPU      0.07s WALL (     126 calls)
     ffts         :      0.00s CPU      0.00s WALL (      17 calls)
     fftw         :      0.31s CPU      0.37s WALL (    6376 calls)
     interpolate  :      0.00s CPU      0.00s WALL (       9 calls)
 
     Parallel routines
     fft_scatt_xy :      0.03s CPU      0.03s WALL (    6519 calls)
     fft_scatt_yz :      0.21s CPU      0.25s WALL (    6519 calls)
 
     PWSCF        :      1.57s CPU      3.69s WALL

 
   This run was terminated on:  17:30:16   9Sep2020            

=------------------------------------------------------------------------------=
   JOB DONE.
=------------------------------------------------------------------------------=

     Program PWSCF v.6.4.1 starts on  9Sep2020 at 17:30:17 

     This program is part of the open-source Quantum ESPRESSO suite
     for quantum simulation of materials; please cite
         "P. Giannozzi et al., J. Phys.:Condens. Matter 21 395502 (2009);
         "P. Giannozzi et al., J. Phys.:Condens. Matter 29 465901 (2017);
          URL http://www.quantum-espresso.org", 
     in publications or presentations arising from this work. More details at
     http://www.quantum-espresso.org/quote

     Parallel version (MPI & OpenMP), running on      20 processor cores
     Number of MPI processes:                20
     Threads/MPI process:                     1

     MPI processes distributed on     1 nodes
     R & G space division:  proc/nbgrp/npool/nimage =      20
     Reading input from /home/hpc/rzku/phyv025h/Exercise_sheet_1/Exercise_1/1_d/MgO_035_8.in

     Current dimensions of program PWSCF are:
     Max number of different atomic species (ntypx) = 10
     Max number of k-points (npk) =  40000
     Max angular momentum in pseudopotentials (lmaxx) =  3

     IMPORTANT: XC functional enforced from input :
     Exchange-correlation      = PBE ( 1  4  3  4 0 0)
     Any further DFT definition will be discarded
     Please, verify this is what you really want


     Subspace diagonalization in iterative solution of the eigenvalue problem:
     a serial algorithm will be used

     Found symmetry operation: I + ( -0.5000 -0.5000  0.0000)
     This is a supercell, fractional translations are disabled
     Message from routine setup:
     DEPRECATED: symmetry with ibrav=0, use correct ibrav instead
 
     Parallelization info
     --------------------
     sticks:   dense  smooth     PW     G-vecs:    dense   smooth      PW
     Min          70      34     10                 1980      698     110
     Max          71      35     12                 1983      701     111
     Sum        1405     697    213                39607    13997    2205
 


     bravais-lattice index     =            0
     lattice parameter (alat)  =       7.9557  a.u.
     unit-cell volume          =     503.5503 (a.u.)^3
     number of atoms/cell      =            8
     number of atomic types    =            2
     number of electrons       =        64.00
     number of Kohn-Sham states=           32
     kinetic-energy cutoff     =      35.0000  Ry
     charge density cutoff     =     280.0000  Ry
     convergence threshold     =      1.0E-08
     mixing beta               =       0.7000
     number of iterations used =            8  plain     mixing
     Exchange-correlation      = PBE ( 1  4  3  4 0 0)

     celldm(1)=   7.955747  celldm(2)=   0.000000  celldm(3)=   0.000000
     celldm(4)=   0.000000  celldm(5)=   0.000000  celldm(6)=   0.000000

     crystal axes: (cart. coord. in units of alat)
               a(1) = (   1.000000   0.000000   0.000000 )  
               a(2) = (   0.000000   1.000000   0.000000 )  
               a(3) = (   0.000000   0.000000   1.000000 )  

     reciprocal axes: (cart. coord. in units 2 pi/alat)
               b(1) = (  1.000000  0.000000  0.000000 )  
               b(2) = (  0.000000  1.000000  0.000000 )  
               b(3) = (  0.000000  0.000000  1.000000 )  


     PseudoPot. # 1 for Mg read from file:
     ./Mg.uspp.UPF
     MD5 check sum: 8ffbd8f729fef71095aac5bd8316fb1f
     Pseudo is Ultrasoft, Zval = 10.0
     Generated by new atomic code, or converted to UPF format
     Using radial grid of  821 points,  7 beta functions with: 
                l(1) =   0
                l(2) =   0
                l(3) =   0
                l(4) =   1
                l(5) =   1
                l(6) =   2
                l(7) =   2
     Q(r) pseudized with  8 coefficients,  rinner =    1.200   1.200   1.200
                                                       1.200   1.200

     PseudoPot. # 2 for O  read from file:
     ./O.uspp.UPF
     MD5 check sum: 734c27235a0248c51dbae37a1fbe46ec
     Pseudo is Ultrasoft + core correction, Zval =  6.0
     Generated by new atomic code, or converted to UPF format
     Using radial grid of  737 points,  5 beta functions with: 
                l(1) =   0
                l(2) =   0
                l(3) =   1
                l(4) =   1
                l(5) =   2
     Q(r) pseudized with  8 coefficients,  rinner =    0.900   0.900   0.900
                                                       0.900   0.900

     atomic species   valence    mass     pseudopotential
        Mg            10.00    24.30500     Mg( 1.00)
        O              6.00    15.99900     O ( 1.00)

     48 Sym. Ops., with inversion, found



   Cartesian axes

     site n.     atom                  positions (alat units)
         1           Mg  tau(   1) = (   0.0000000   0.0000000   0.0000000  )
         2           Mg  tau(   2) = (   0.5000000   0.5000000   0.0000000  )
         3           Mg  tau(   3) = (   0.5000000   0.0000000   0.5000000  )
         4           Mg  tau(   4) = (   0.0000000   0.5000000   0.5000000  )
         5           O   tau(   5) = (   0.5000000   0.0000000   0.0000000  )
         6           O   tau(   6) = (   0.0000000   0.5000000   0.0000000  )
         7           O   tau(   7) = (   0.0000000   0.0000000   0.5000000  )
         8           O   tau(   8) = (   0.5000000   0.5000000   0.5000000  )

     number of k points=     4
                       cart. coord. in units 2pi/alat
        k(    1) = (   0.0000000   0.0000000   0.0000000), wk =   0.0740741
        k(    2) = (   0.0000000   0.0000000   0.3333333), wk =   0.4444444
        k(    3) = (   0.0000000   0.3333333   0.3333333), wk =   0.8888889
        k(    4) = (   0.3333333   0.3333333   0.3333333), wk =   0.5925926

     Dense  grid:    39607 G-vectors     FFT dimensions: (  45,  45,  45)

     Smooth grid:    13997 G-vectors     FFT dimensions: (  30,  30,  30)

     Estimated max dynamical RAM per process >      13.13 MB

     Estimated total dynamical RAM >     262.61 MB

     Check: negative core charge=   -0.000003

     Initial potential from superposition of free atoms

     starting charge   62.79908, renormalised to   64.00000
     Starting wfcs are   36 randomized atomic wfcs

     total cpu time spent up to now is        0.2 secs

     Self-consistent Calculation

     iteration #  1     ecut=    35.00 Ry     beta= 0.70
     Davidson diagonalization with overlap
     ethr =  1.00E-02,  avg # of iterations =  2.0

     total cpu time spent up to now is        0.4 secs

     total energy              =    -630.82461115 Ry
     Harris-Foulkes estimate   =    -632.00363572 Ry
     estimated scf accuracy    <       1.53724080 Ry

     iteration #  2     ecut=    35.00 Ry     beta= 0.70
     Davidson diagonalization with overlap
     ethr =  2.40E-03,  avg # of iterations =  2.8

     total cpu time spent up to now is        0.6 secs

     total energy              =    -631.20755960 Ry
     Harris-Foulkes estimate   =    -631.87679095 Ry
     estimated scf accuracy    <       1.38780912 Ry

     iteration #  3     ecut=    35.00 Ry     beta= 0.70
     Davidson diagonalization with overlap
     ethr =  2.17E-03,  avg # of iterations =  2.0

     total cpu time spent up to now is        0.7 secs

     total energy              =    -631.48430226 Ry
     Harris-Foulkes estimate   =    -631.48781274 Ry
     estimated scf accuracy    <       0.01068216 Ry

     iteration #  4     ecut=    35.00 Ry     beta= 0.70
     Davidson diagonalization with overlap
     ethr =  1.67E-05,  avg # of iterations =  2.0

     total cpu time spent up to now is        0.8 secs

     total energy              =    -631.48577547 Ry
     Harris-Foulkes estimate   =    -631.48577793 Ry
     estimated scf accuracy    <       0.00039340 Ry

     iteration #  5     ecut=    35.00 Ry     beta= 0.70
     Davidson diagonalization with overlap
     ethr =  6.15E-07,  avg # of iterations =  2.0

     total cpu time spent up to now is        1.0 secs

     total energy              =    -631.48580488 Ry
     Harris-Foulkes estimate   =    -631.48580407 Ry
     estimated scf accuracy    <       0.00000485 Ry

     iteration #  6     ecut=    35.00 Ry     beta= 0.70
     Davidson diagonalization with overlap
     ethr =  7.57E-09,  avg # of iterations =  2.2

     total cpu time spent up to now is        1.1 secs

     total energy              =    -631.48580562 Ry
     Harris-Foulkes estimate   =    -631.48580597 Ry
     estimated scf accuracy    <       0.00000111 Ry

     iteration #  7     ecut=    35.00 Ry     beta= 0.70
     Davidson diagonalization with overlap
     ethr =  1.74E-09,  avg # of iterations =  2.0

     total cpu time spent up to now is        1.2 secs

     total energy              =    -631.48580574 Ry
     Harris-Foulkes estimate   =    -631.48580581 Ry
     estimated scf accuracy    <       0.00000021 Ry

     iteration #  8     ecut=    35.00 Ry     beta= 0.70
     Davidson diagonalization with overlap
     ethr =  3.35E-10,  avg # of iterations =  2.0

     total cpu time spent up to now is        1.4 secs

     End of self-consistent calculation

          k = 0.0000 0.0000 0.0000 (  1791 PWs)   bands (ev):

   -64.4748 -64.4633 -64.4633 -64.4628 -31.2913 -31.2913 -31.2913 -31.2476
   -31.2476 -31.2476 -31.2471 -31.2471 -31.2471 -31.2182 -31.2182 -31.2182
    -9.3832  -7.8382  -7.8379  -7.8379   3.7809   3.7809   3.7809   6.4991
     6.4991   6.4991   6.4994   6.4994   6.4994   7.8420   7.8420   7.8420

          k = 0.0000 0.0000 0.3333 (  1783 PWs)   bands (ev):

   -64.4718 -64.4661 -64.4633 -64.4629 -31.2806 -31.2806 -31.2748 -31.2584
   -31.2584 -31.2483 -31.2479 -31.2400 -31.2400 -31.2386 -31.2251 -31.2251
    -9.0032  -8.2288  -7.7898  -7.7897   4.3025   4.3025   4.4173   5.6119
     5.6119   6.1764   6.1767   6.2597   6.7908   6.7908   7.4568   7.4568

          k = 0.0000 0.3333 0.3333 (  1746 PWs)   bands (ev):

   -64.4696 -64.4653 -64.4650 -64.4638 -31.2793 -31.2790 -31.2746 -31.2701
   -31.2602 -31.2495 -31.2491 -31.2356 -31.2341 -31.2338 -31.2332 -31.2206
    -8.6832  -8.0713  -8.0711  -7.8484   4.3124   4.3125   4.6251   4.7933
     5.2217   6.0014   6.0017   6.8289   6.8290   6.8456   6.9097   7.5262

          k = 0.3333 0.3333 0.3333 (  1757 PWs)   bands (ev):

   -64.4681 -64.4654 -64.4654 -64.4649 -31.2946 -31.2944 -31.2944 -31.2832
   -31.2386 -31.2386 -31.2382 -31.2322 -31.2319 -31.2319 -31.2240 -31.2240
    -8.4350  -8.0115  -8.0112  -8.0112   3.6796   3.6796   3.6796   4.1763
     6.4082   6.4084   6.4084   7.0031   7.0031   7.0032   7.3437   7.3437

     highest occupied level (ev):     7.8420

!    total energy              =    -631.48580576 Ry
     Harris-Foulkes estimate   =    -631.48580576 Ry
     estimated scf accuracy    <          6.2E-09 Ry

     The total energy is the sum of the following terms:

     one-electron contribution =    -347.32603830 Ry
     hartree contribution      =     193.06429591 Ry
     xc contribution           =     -97.97158769 Ry
     ewald contribution        =    -379.25247569 Ry

     convergence has been achieved in   8 iterations

     Forces acting on atoms (cartesian axes, Ry/au):

     atom    1 type  1   force =     0.00000000    0.00000000    0.00000000
     atom    2 type  1   force =     0.00000000    0.00000000    0.00000000
     atom    3 type  1   force =     0.00000000    0.00000000   -0.00000000
     atom    4 type  1   force =     0.00000000    0.00000000    0.00000000
     atom    5 type  2   force =     0.00000000    0.00000000   -0.00000000
     atom    6 type  2   force =     0.00000000    0.00000000   -0.00000000
     atom    7 type  2   force =     0.00000000    0.00000000    0.00000000
     atom    8 type  2   force =     0.00000000    0.00000000    0.00000000

     Total force =     0.000000     Total SCF correction =     0.000000

     Writing output data file MgO_035_8.save/
 
     init_run     :      0.14s CPU      0.16s WALL (       1 calls)
     electrons    :      1.02s CPU      1.24s WALL (       1 calls)
     forces       :      0.04s CPU      0.05s WALL (       1 calls)

     Called by init_run:
     wfcinit      :      0.03s CPU      0.04s WALL (       1 calls)
     potinit      :      0.01s CPU      0.01s WALL (       1 calls)
     hinit0       :      0.07s CPU      0.07s WALL (       1 calls)

     Called by electrons:
     c_bands      :      0.68s CPU      0.72s WALL (       8 calls)
     sum_band     :      0.19s CPU      0.22s WALL (       8 calls)
     v_of_rho     :      0.04s CPU      0.04s WALL (       9 calls)
     newd         :      0.11s CPU      0.14s WALL (       9 calls)
     mix_rho      :      0.01s CPU      0.01s WALL (       8 calls)

     Called by c_bands:
     init_us_2    :      0.01s CPU      0.01s WALL (      72 calls)
     cegterg      :      0.64s CPU      0.68s WALL (      32 calls)

     Called by sum_band:
     sum_band:bec :      0.00s CPU      0.00s WALL (      32 calls)
     addusdens    :      0.10s CPU      0.12s WALL (       8 calls)

     Called by *egterg:
     h_psi        :      0.38s CPU      0.41s WALL (     104 calls)
     s_psi        :      0.02s CPU      0.02s WALL (     104 calls)
     g_psi        :      0.00s CPU      0.00s WALL (      68 calls)
     cdiaghg      :      0.20s CPU      0.20s WALL (     100 calls)

     Called by h_psi:
     h_psi:pot    :      0.38s CPU      0.41s WALL (     104 calls)
     h_psi:calbec :      0.03s CPU      0.03s WALL (     104 calls)
     vloc_psi     :      0.33s CPU      0.35s WALL (     104 calls)
     add_vuspsi   :      0.02s CPU      0.02s WALL (     104 calls)

     General routines
     calbec       :      0.04s CPU      0.05s WALL (     152 calls)
     fft          :      0.03s CPU      0.03s WALL (     126 calls)
     ffts         :      0.00s CPU      0.00s WALL (      17 calls)
     fftw         :      0.37s CPU      0.40s WALL (    6416 calls)
     interpolate  :      0.00s CPU      0.00s WALL (       9 calls)
 
     Parallel routines
     fft_scatt_xy :      0.03s CPU      0.04s WALL (    6559 calls)
     fft_scatt_yz :      0.26s CPU      0.28s WALL (    6559 calls)
 
     PWSCF        :      1.34s CPU      2.99s WALL

 
   This run was terminated on:  17:30:20   9Sep2020            

=------------------------------------------------------------------------------=
   JOB DONE.
=------------------------------------------------------------------------------=

     Program PWSCF v.6.4.1 starts on  9Sep2020 at 17:30:21 

     This program is part of the open-source Quantum ESPRESSO suite
     for quantum simulation of materials; please cite
         "P. Giannozzi et al., J. Phys.:Condens. Matter 21 395502 (2009);
         "P. Giannozzi et al., J. Phys.:Condens. Matter 29 465901 (2017);
          URL http://www.quantum-espresso.org", 
     in publications or presentations arising from this work. More details at
     http://www.quantum-espresso.org/quote

     Parallel version (MPI & OpenMP), running on      20 processor cores
     Number of MPI processes:                20
     Threads/MPI process:                     1

     MPI processes distributed on     1 nodes
     R & G space division:  proc/nbgrp/npool/nimage =      20
     Reading input from /home/hpc/rzku/phyv025h/Exercise_sheet_1/Exercise_1/1_d/MgO_040_8.in

     Current dimensions of program PWSCF are:
     Max number of different atomic species (ntypx) = 10
     Max number of k-points (npk) =  40000
     Max angular momentum in pseudopotentials (lmaxx) =  3

     IMPORTANT: XC functional enforced from input :
     Exchange-correlation      = PBE ( 1  4  3  4 0 0)
     Any further DFT definition will be discarded
     Please, verify this is what you really want


     Subspace diagonalization in iterative solution of the eigenvalue problem:
     a serial algorithm will be used

     Found symmetry operation: I + ( -0.5000 -0.5000  0.0000)
     This is a supercell, fractional translations are disabled
     Message from routine setup:
     DEPRECATED: symmetry with ibrav=0, use correct ibrav instead
 
     Parallelization info
     --------------------
     sticks:   dense  smooth     PW     G-vecs:    dense   smooth      PW
     Min          80      39     11                 2432      851     129
     Max          81      40     12                 2437      856     132
     Sum        1609     797    233                48693    17077    2601
 


     bravais-lattice index     =            0
     lattice parameter (alat)  =       7.9557  a.u.
     unit-cell volume          =     503.5503 (a.u.)^3
     number of atoms/cell      =            8
     number of atomic types    =            2
     number of electrons       =        64.00
     number of Kohn-Sham states=           32
     kinetic-energy cutoff     =      40.0000  Ry
     charge density cutoff     =     320.0000  Ry
     convergence threshold     =      1.0E-08
     mixing beta               =       0.7000
     number of iterations used =            8  plain     mixing
     Exchange-correlation      = PBE ( 1  4  3  4 0 0)

     celldm(1)=   7.955747  celldm(2)=   0.000000  celldm(3)=   0.000000
     celldm(4)=   0.000000  celldm(5)=   0.000000  celldm(6)=   0.000000

     crystal axes: (cart. coord. in units of alat)
               a(1) = (   1.000000   0.000000   0.000000 )  
               a(2) = (   0.000000   1.000000   0.000000 )  
               a(3) = (   0.000000   0.000000   1.000000 )  

     reciprocal axes: (cart. coord. in units 2 pi/alat)
               b(1) = (  1.000000  0.000000  0.000000 )  
               b(2) = (  0.000000  1.000000  0.000000 )  
               b(3) = (  0.000000  0.000000  1.000000 )  


     PseudoPot. # 1 for Mg read from file:
     ./Mg.uspp.UPF
     MD5 check sum: 8ffbd8f729fef71095aac5bd8316fb1f
     Pseudo is Ultrasoft, Zval = 10.0
     Generated by new atomic code, or converted to UPF format
     Using radial grid of  821 points,  7 beta functions with: 
                l(1) =   0
                l(2) =   0
                l(3) =   0
                l(4) =   1
                l(5) =   1
                l(6) =   2
                l(7) =   2
     Q(r) pseudized with  8 coefficients,  rinner =    1.200   1.200   1.200
                                                       1.200   1.200

     PseudoPot. # 2 for O  read from file:
     ./O.uspp.UPF
     MD5 check sum: 734c27235a0248c51dbae37a1fbe46ec
     Pseudo is Ultrasoft + core correction, Zval =  6.0
     Generated by new atomic code, or converted to UPF format
     Using radial grid of  737 points,  5 beta functions with: 
                l(1) =   0
                l(2) =   0
                l(3) =   1
                l(4) =   1
                l(5) =   2
     Q(r) pseudized with  8 coefficients,  rinner =    0.900   0.900   0.900
                                                       0.900   0.900

     atomic species   valence    mass     pseudopotential
        Mg            10.00    24.30500     Mg( 1.00)
        O              6.00    15.99900     O ( 1.00)

     48 Sym. Ops., with inversion, found



   Cartesian axes

     site n.     atom                  positions (alat units)
         1           Mg  tau(   1) = (   0.0000000   0.0000000   0.0000000  )
         2           Mg  tau(   2) = (   0.5000000   0.5000000   0.0000000  )
         3           Mg  tau(   3) = (   0.5000000   0.0000000   0.5000000  )
         4           Mg  tau(   4) = (   0.0000000   0.5000000   0.5000000  )
         5           O   tau(   5) = (   0.5000000   0.0000000   0.0000000  )
         6           O   tau(   6) = (   0.0000000   0.5000000   0.0000000  )
         7           O   tau(   7) = (   0.0000000   0.0000000   0.5000000  )
         8           O   tau(   8) = (   0.5000000   0.5000000   0.5000000  )

     number of k points=     4
                       cart. coord. in units 2pi/alat
        k(    1) = (   0.0000000   0.0000000   0.0000000), wk =   0.0740741
        k(    2) = (   0.0000000   0.0000000   0.3333333), wk =   0.4444444
        k(    3) = (   0.0000000   0.3333333   0.3333333), wk =   0.8888889
        k(    4) = (   0.3333333   0.3333333   0.3333333), wk =   0.5925926

     Dense  grid:    48693 G-vectors     FFT dimensions: (  45,  45,  45)

     Smooth grid:    17077 G-vectors     FFT dimensions: (  36,  36,  36)

     Estimated max dynamical RAM per process >      15.29 MB

     Estimated total dynamical RAM >     305.86 MB

     Check: negative core charge=   -0.000001

     Initial potential from superposition of free atoms

     starting charge   62.79908, renormalised to   64.00000
     Starting wfcs are   36 randomized atomic wfcs

     total cpu time spent up to now is        0.3 secs

     Self-consistent Calculation

     iteration #  1     ecut=    40.00 Ry     beta= 0.70
     Davidson diagonalization with overlap
     ethr =  1.00E-02,  avg # of iterations =  2.0

     total cpu time spent up to now is        0.4 secs

     total energy              =    -630.82628753 Ry
     Harris-Foulkes estimate   =    -632.00839209 Ry
     estimated scf accuracy    <       1.54077890 Ry

     iteration #  2     ecut=    40.00 Ry     beta= 0.70
     Davidson diagonalization with overlap
     ethr =  2.41E-03,  avg # of iterations =  2.8

     total cpu time spent up to now is        0.6 secs

     total energy              =    -631.21077026 Ry
     Harris-Foulkes estimate   =    -631.88475599 Ry
     estimated scf accuracy    <       1.39902478 Ry

     iteration #  3     ecut=    40.00 Ry     beta= 0.70
     Davidson diagonalization with overlap
     ethr =  2.19E-03,  avg # of iterations =  2.0

     total cpu time spent up to now is        0.8 secs

     total energy              =    -631.48919226 Ry
     Harris-Foulkes estimate   =    -631.49269563 Ry
     estimated scf accuracy    <       0.01064595 Ry

     iteration #  4     ecut=    40.00 Ry     beta= 0.70
     Davidson diagonalization with overlap
     ethr =  1.66E-05,  avg # of iterations =  2.0

     total cpu time spent up to now is        0.9 secs

     total energy              =    -631.49067797 Ry
     Harris-Foulkes estimate   =    -631.49068309 Ry
     estimated scf accuracy    <       0.00039579 Ry

     iteration #  5     ecut=    40.00 Ry     beta= 0.70
     Davidson diagonalization with overlap
     ethr =  6.18E-07,  avg # of iterations =  2.0

     total cpu time spent up to now is        1.1 secs

     total energy              =    -631.49070802 Ry
     Harris-Foulkes estimate   =    -631.49070718 Ry
     estimated scf accuracy    <       0.00000485 Ry

     iteration #  6     ecut=    40.00 Ry     beta= 0.70
     Davidson diagonalization with overlap
     ethr =  7.58E-09,  avg # of iterations =  2.5

     total cpu time spent up to now is        1.2 secs

     total energy              =    -631.49070879 Ry
     Harris-Foulkes estimate   =    -631.49070899 Ry
     estimated scf accuracy    <       0.00000071 Ry

     iteration #  7     ecut=    40.00 Ry     beta= 0.70
     Davidson diagonalization with overlap
     ethr =  1.11E-09,  avg # of iterations =  2.0

     total cpu time spent up to now is        1.4 secs

     total energy              =    -631.49070883 Ry
     Harris-Foulkes estimate   =    -631.49070887 Ry
     estimated scf accuracy    <       0.00000010 Ry

     iteration #  8     ecut=    40.00 Ry     beta= 0.70
     Davidson diagonalization with overlap
     ethr =  1.62E-10,  avg # of iterations =  2.0

     total cpu time spent up to now is        1.5 secs

     End of self-consistent calculation

          k = 0.0000 0.0000 0.0000 (  2109 PWs)   bands (ev):

   -64.4636 -64.4521 -64.4521 -64.4517 -31.2812 -31.2812 -31.2812 -31.2369
   -31.2369 -31.2369 -31.2365 -31.2365 -31.2365 -31.2077 -31.2077 -31.2077
    -9.3812  -7.8357  -7.8356  -7.8356   3.7821   3.7821   3.7821   6.5007
     6.5007   6.5007   6.5009   6.5009   6.5009   7.8436   7.8436   7.8436

          k = 0.0000 0.0000 0.3333 (  2156 PWs)   bands (ev):

   -64.4607 -64.4549 -64.4521 -64.4518 -31.2700 -31.2700 -31.2645 -31.2477
   -31.2477 -31.2383 -31.2379 -31.2294 -31.2294 -31.2278 -31.2149 -31.2149
    -9.0011  -8.2265  -7.7874  -7.7873   4.3039   4.3039   4.4181   5.6131
     5.6131   6.1768   6.1770   6.2614   6.7925   6.7925   7.4577   7.4577

          k = 0.0000 0.3333 0.3333 (  2135 PWs)   bands (ev):

   -64.4585 -64.4542 -64.4540 -64.4526 -31.2692 -31.2690 -31.2641 -31.2598
   -31.2499 -31.2397 -31.2393 -31.2251 -31.2242 -31.2240 -31.2231 -31.2106
    -8.6810  -8.0689  -8.0688  -7.8460   4.3130   4.3130   4.6262   4.7944
     5.2226   6.0018   6.0020   6.8290   6.8291   6.8467   6.9106   7.5263

          k = 0.3333 0.3333 0.3333 (  2151 PWs)   bands (ev):

   -64.4571 -64.4542 -64.4542 -64.4539 -31.2842 -31.2841 -31.2841 -31.2729
   -31.2285 -31.2285 -31.2281 -31.2216 -31.2213 -31.2213 -31.2142 -31.2142
    -8.4327  -8.0090  -8.0088  -8.0088   3.6803   3.6803   3.6803   4.1771
     6.4088   6.4090   6.4090   7.0044   7.0044   7.0046   7.3437   7.3437

     highest occupied level (ev):     7.8436

!    total energy              =    -631.49070884 Ry
     Harris-Foulkes estimate   =    -631.49070884 Ry
     estimated scf accuracy    <          6.6E-09 Ry

     The total energy is the sum of the following terms:

     one-electron contribution =    -347.35803497 Ry
     hartree contribution      =     193.09768603 Ry
     xc contribution           =     -97.97788422 Ry
     ewald contribution        =    -379.25247568 Ry

     convergence has been achieved in   8 iterations

     Forces acting on atoms (cartesian axes, Ry/au):

     atom    1 type  1   force =     0.00000000    0.00000000    0.00000000
     atom    2 type  1   force =     0.00000000    0.00000000    0.00000000
     atom    3 type  1   force =     0.00000000   -0.00000000    0.00000000
     atom    4 type  1   force =     0.00000000    0.00000000    0.00000000
     atom    5 type  2   force =     0.00000000    0.00000000   -0.00000000
     atom    6 type  2   force =     0.00000000    0.00000000    0.00000000
     atom    7 type  2   force =     0.00000000    0.00000000    0.00000000
     atom    8 type  2   force =     0.00000000    0.00000000    0.00000000

     Total force =     0.000000     Total SCF correction =     0.000000

     Writing output data file MgO_040_8.save/
 
     init_run     :      0.16s CPU      0.18s WALL (       1 calls)
     electrons    :      1.16s CPU      1.28s WALL (       1 calls)
     forces       :      0.05s CPU      0.05s WALL (       1 calls)

     Called by init_run:
     wfcinit      :      0.04s CPU      0.04s WALL (       1 calls)
     potinit      :      0.01s CPU      0.01s WALL (       1 calls)
     hinit0       :      0.07s CPU      0.08s WALL (       1 calls)

     Called by electrons:
     c_bands      :      0.74s CPU      0.79s WALL (       8 calls)
     sum_band     :      0.23s CPU      0.26s WALL (       8 calls)
     v_of_rho     :      0.05s CPU      0.05s WALL (       9 calls)
     newd         :      0.14s CPU      0.16s WALL (       9 calls)
     mix_rho      :      0.01s CPU      0.01s WALL (       8 calls)

     Called by c_bands:
     init_us_2    :      0.01s CPU      0.01s WALL (      72 calls)
     cegterg      :      0.70s CPU      0.74s WALL (      32 calls)

     Called by sum_band:
     sum_band:bec :      0.00s CPU      0.00s WALL (      32 calls)
     addusdens    :      0.12s CPU      0.14s WALL (       8 calls)

     Called by *egterg:
     h_psi        :      0.43s CPU      0.47s WALL (     105 calls)
     s_psi        :      0.03s CPU      0.03s WALL (     105 calls)
     g_psi        :      0.00s CPU      0.00s WALL (      69 calls)
     cdiaghg      :      0.21s CPU      0.21s WALL (     101 calls)

     Called by h_psi:
     h_psi:pot    :      0.43s CPU      0.47s WALL (     105 calls)
     h_psi:calbec :      0.03s CPU      0.04s WALL (     105 calls)
     vloc_psi     :      0.37s CPU      0.40s WALL (     105 calls)
     add_vuspsi   :      0.03s CPU      0.03s WALL (     105 calls)

     General routines
     calbec       :      0.05s CPU      0.05s WALL (     153 calls)
     fft          :      0.03s CPU      0.04s WALL (     126 calls)
     ffts         :      0.00s CPU      0.00s WALL (      17 calls)
     fftw         :      0.42s CPU      0.45s WALL (    6424 calls)
     interpolate  :      0.00s CPU      0.00s WALL (       9 calls)
 
     Parallel routines
     fft_scatt_xy :      0.04s CPU      0.04s WALL (    6567 calls)
     fft_scatt_yz :      0.26s CPU      0.29s WALL (    6567 calls)
 
     PWSCF        :      1.60s CPU      1.95s WALL

 
   This run was terminated on:  17:30:23   9Sep2020            

=------------------------------------------------------------------------------=
   JOB DONE.
=------------------------------------------------------------------------------=

     Program PWSCF v.6.4.1 starts on  9Sep2020 at 17:30:24 

     This program is part of the open-source Quantum ESPRESSO suite
     for quantum simulation of materials; please cite
         "P. Giannozzi et al., J. Phys.:Condens. Matter 21 395502 (2009);
         "P. Giannozzi et al., J. Phys.:Condens. Matter 29 465901 (2017);
          URL http://www.quantum-espresso.org", 
     in publications or presentations arising from this work. More details at
     http://www.quantum-espresso.org/quote

     Parallel version (MPI & OpenMP), running on      20 processor cores
     Number of MPI processes:                20
     Threads/MPI process:                     1

     MPI processes distributed on     1 nodes
     R & G space division:  proc/nbgrp/npool/nimage =      20
     Reading input from /home/hpc/rzku/phyv025h/Exercise_sheet_1/Exercise_1/1_d/MgO_045_8.in

     Current dimensions of program PWSCF are:
     Max number of different atomic species (ntypx) = 10
     Max number of k-points (npk) =  40000
     Max angular momentum in pseudopotentials (lmaxx) =  3

     IMPORTANT: XC functional enforced from input :
     Exchange-correlation      = PBE ( 1  4  3  4 0 0)
     Any further DFT definition will be discarded
     Please, verify this is what you really want


     Subspace diagonalization in iterative solution of the eigenvalue problem:
     a serial algorithm will be used

     Found symmetry operation: I + ( -0.5000 -0.5000  0.0000)
     This is a supercell, fractional translations are disabled
     Message from routine setup:
     DEPRECATED: symmetry with ibrav=0, use correct ibrav instead
 
     Parallelization info
     --------------------
     sticks:   dense  smooth     PW     G-vecs:    dense   smooth      PW
     Min          90      44     13                 2892     1018     155
     Max          91      46     14                 2896     1021     157
     Sum        1801     889    261                57873    20377    3119
 


     bravais-lattice index     =            0
     lattice parameter (alat)  =       7.9557  a.u.
     unit-cell volume          =     503.5503 (a.u.)^3
     number of atoms/cell      =            8
     number of atomic types    =            2
     number of electrons       =        64.00
     number of Kohn-Sham states=           32
     kinetic-energy cutoff     =      45.0000  Ry
     charge density cutoff     =     360.0000  Ry
     convergence threshold     =      1.0E-08
     mixing beta               =       0.7000
     number of iterations used =            8  plain     mixing
     Exchange-correlation      = PBE ( 1  4  3  4 0 0)

     celldm(1)=   7.955747  celldm(2)=   0.000000  celldm(3)=   0.000000
     celldm(4)=   0.000000  celldm(5)=   0.000000  celldm(6)=   0.000000

     crystal axes: (cart. coord. in units of alat)
               a(1) = (   1.000000   0.000000   0.000000 )  
               a(2) = (   0.000000   1.000000   0.000000 )  
               a(3) = (   0.000000   0.000000   1.000000 )  

     reciprocal axes: (cart. coord. in units 2 pi/alat)
               b(1) = (  1.000000  0.000000  0.000000 )  
               b(2) = (  0.000000  1.000000  0.000000 )  
               b(3) = (  0.000000  0.000000  1.000000 )  


     PseudoPot. # 1 for Mg read from file:
     ./Mg.uspp.UPF
     MD5 check sum: 8ffbd8f729fef71095aac5bd8316fb1f
     Pseudo is Ultrasoft, Zval = 10.0
     Generated by new atomic code, or converted to UPF format
     Using radial grid of  821 points,  7 beta functions with: 
                l(1) =   0
                l(2) =   0
                l(3) =   0
                l(4) =   1
                l(5) =   1
                l(6) =   2
                l(7) =   2
     Q(r) pseudized with  8 coefficients,  rinner =    1.200   1.200   1.200
                                                       1.200   1.200

     PseudoPot. # 2 for O  read from file:
     ./O.uspp.UPF
     MD5 check sum: 734c27235a0248c51dbae37a1fbe46ec
     Pseudo is Ultrasoft + core correction, Zval =  6.0
     Generated by new atomic code, or converted to UPF format
     Using radial grid of  737 points,  5 beta functions with: 
                l(1) =   0
                l(2) =   0
                l(3) =   1
                l(4) =   1
                l(5) =   2
     Q(r) pseudized with  8 coefficients,  rinner =    0.900   0.900   0.900
                                                       0.900   0.900

     atomic species   valence    mass     pseudopotential
        Mg            10.00    24.30500     Mg( 1.00)
        O              6.00    15.99900     O ( 1.00)

     48 Sym. Ops., with inversion, found



   Cartesian axes

     site n.     atom                  positions (alat units)
         1           Mg  tau(   1) = (   0.0000000   0.0000000   0.0000000  )
         2           Mg  tau(   2) = (   0.5000000   0.5000000   0.0000000  )
         3           Mg  tau(   3) = (   0.5000000   0.0000000   0.5000000  )
         4           Mg  tau(   4) = (   0.0000000   0.5000000   0.5000000  )
         5           O   tau(   5) = (   0.5000000   0.0000000   0.0000000  )
         6           O   tau(   6) = (   0.0000000   0.5000000   0.0000000  )
         7           O   tau(   7) = (   0.0000000   0.0000000   0.5000000  )
         8           O   tau(   8) = (   0.5000000   0.5000000   0.5000000  )

     number of k points=     4
                       cart. coord. in units 2pi/alat
        k(    1) = (   0.0000000   0.0000000   0.0000000), wk =   0.0740741
        k(    2) = (   0.0000000   0.0000000   0.3333333), wk =   0.4444444
        k(    3) = (   0.0000000   0.3333333   0.3333333), wk =   0.8888889
        k(    4) = (   0.3333333   0.3333333   0.3333333), wk =   0.5925926

     Dense  grid:    57873 G-vectors     FFT dimensions: (  50,  50,  50)

     Smooth grid:    20377 G-vectors     FFT dimensions: (  36,  36,  36)

     Estimated max dynamical RAM per process >      17.58 MB

     Estimated total dynamical RAM >     351.67 MB

     Check: negative core charge=   -0.000002

     Initial potential from superposition of free atoms

     starting charge   62.79908, renormalised to   64.00000
     Starting wfcs are   36 randomized atomic wfcs

     total cpu time spent up to now is        0.3 secs

     Self-consistent Calculation

     iteration #  1     ecut=    45.00 Ry     beta= 0.70
     Davidson diagonalization with overlap
     ethr =  1.00E-02,  avg # of iterations =  2.0

     total cpu time spent up to now is        0.5 secs

     total energy              =    -630.82588674 Ry
     Harris-Foulkes estimate   =    -632.00925290 Ry
     estimated scf accuracy    <       1.54222125 Ry

     iteration #  2     ecut=    45.00 Ry     beta= 0.70
     Davidson diagonalization with overlap
     ethr =  2.41E-03,  avg # of iterations =  2.8

     total cpu time spent up to now is        0.7 secs

     total energy              =    -631.21105710 Ry
     Harris-Foulkes estimate   =    -631.88572082 Ry
     estimated scf accuracy    <       1.40042204 Ry

     iteration #  3     ecut=    45.00 Ry     beta= 0.70
     Davidson diagonalization with overlap
     ethr =  2.19E-03,  avg # of iterations =  2.0

     total cpu time spent up to now is        0.9 secs

     total energy              =    -631.48972140 Ry
     Harris-Foulkes estimate   =    -631.49324787 Ry
     estimated scf accuracy    <       0.01068397 Ry

     iteration #  4     ecut=    45.00 Ry     beta= 0.70
     Davidson diagonalization with overlap
     ethr =  1.67E-05,  avg # of iterations =  2.0

     total cpu time spent up to now is        1.0 secs

     total energy              =    -631.49122643 Ry
     Harris-Foulkes estimate   =    -631.49123187 Ry
     estimated scf accuracy    <       0.00039813 Ry

     iteration #  5     ecut=    45.00 Ry     beta= 0.70
     Davidson diagonalization with overlap
     ethr =  6.22E-07,  avg # of iterations =  2.0

     total cpu time spent up to now is        1.2 secs

     total energy              =    -631.49125727 Ry
     Harris-Foulkes estimate   =    -631.49125664 Ry
     estimated scf accuracy    <       0.00000513 Ry

     iteration #  6     ecut=    45.00 Ry     beta= 0.70
     Davidson diagonalization with overlap
     ethr =  8.02E-09,  avg # of iterations =  2.2

     total cpu time spent up to now is        1.4 secs

     total energy              =    -631.49125799 Ry
     Harris-Foulkes estimate   =    -631.49125857 Ry
     estimated scf accuracy    <       0.00000168 Ry

     iteration #  7     ecut=    45.00 Ry     beta= 0.70
     Davidson diagonalization with overlap
     ethr =  2.62E-09,  avg # of iterations =  2.8

     total cpu time spent up to now is        1.5 secs

     total energy              =    -631.49125826 Ry
     Harris-Foulkes estimate   =    -631.49125833 Ry
     estimated scf accuracy    <       0.00000025 Ry

     iteration #  8     ecut=    45.00 Ry     beta= 0.70
     Davidson diagonalization with overlap
     ethr =  3.90E-10,  avg # of iterations =  2.0

     total cpu time spent up to now is        1.7 secs

     End of self-consistent calculation

          k = 0.0000 0.0000 0.0000 (  2553 PWs)   bands (ev):

   -64.4659 -64.4542 -64.4542 -64.4542 -31.2835 -31.2835 -31.2835 -31.2390
   -31.2390 -31.2390 -31.2390 -31.2390 -31.2390 -31.2101 -31.2101 -31.2101
    -9.3815  -7.8359  -7.8359  -7.8358   3.7816   3.7816   3.7816   6.5003
     6.5003   6.5003   6.5004   6.5004   6.5004   7.8430   7.8430   7.8430

          k = 0.0000 0.0000 0.3333 (  2601 PWs)   bands (ev):

   -64.4630 -64.4571 -64.4542 -64.4542 -31.2723 -31.2723 -31.2668 -31.2501
   -31.2501 -31.2405 -31.2405 -31.2317 -31.2317 -31.2302 -31.2173 -31.2173
    -9.0014  -8.2267  -7.7876  -7.7875   4.3033   4.3033   4.4176   5.6126
     5.6126   6.1764   6.1764   6.2608   6.7920   6.7920   7.4571   7.4571

          k = 0.0000 0.3333 0.3333 (  2562 PWs)   bands (ev):

   -64.4608 -64.4564 -64.4564 -64.4549 -31.2715 -31.2714 -31.2664 -31.2621
   -31.2522 -31.2418 -31.2418 -31.2274 -31.2264 -31.2264 -31.2254 -31.2129
    -8.6813  -8.0692  -8.0691  -7.8462   4.3125   4.3125   4.6257   4.7938
     5.2221   6.0013   6.0014   6.8286   6.8286   6.8462   6.9101   7.5259

          k = 0.3333 0.3333 0.3333 (  2542 PWs)   bands (ev):

   -64.4593 -64.4564 -64.4564 -64.4564 -31.2865 -31.2865 -31.2865 -31.2752
   -31.2307 -31.2307 -31.2307 -31.2237 -31.2237 -31.2237 -31.2165 -31.2165
    -8.4330  -8.0092  -8.0092  -8.0091   3.6798   3.6798   3.6798   4.1766
     6.4084   6.4084   6.4085   7.0040   7.0041   7.0041   7.3433   7.3433

     highest occupied level (ev):     7.8430

!    total energy              =    -631.49125827 Ry
     Harris-Foulkes estimate   =    -631.49125827 Ry
     estimated scf accuracy    <          8.0E-09 Ry

     The total energy is the sum of the following terms:

     one-electron contribution =    -347.35359105 Ry
     hartree contribution      =     193.09163150 Ry
     xc contribution           =     -97.97682304 Ry
     ewald contribution        =    -379.25247568 Ry

     convergence has been achieved in   8 iterations

     Forces acting on atoms (cartesian axes, Ry/au):

     atom    1 type  1   force =     0.00000000    0.00000000    0.00000000
     atom    2 type  1   force =     0.00000000    0.00000000    0.00000000
     atom    3 type  1   force =     0.00000000    0.00000000   -0.00000000
     atom    4 type  1   force =     0.00000000   -0.00000000   -0.00000000
     atom    5 type  2   force =     0.00000000    0.00000000    0.00000000
     atom    6 type  2   force =     0.00000000    0.00000000   -0.00000000
     atom    7 type  2   force =     0.00000000    0.00000000    0.00000000
     atom    8 type  2   force =     0.00000000    0.00000000    0.00000000

     Total force =     0.000000     Total SCF correction =     0.000000

     Writing output data file MgO_045_8.save/
 
     init_run     :      0.18s CPU      0.20s WALL (       1 calls)
     electrons    :      1.28s CPU      1.47s WALL (       1 calls)
     forces       :      0.05s CPU      0.06s WALL (       1 calls)

     Called by init_run:
     wfcinit      :      0.04s CPU      0.04s WALL (       1 calls)
     potinit      :      0.02s CPU      0.02s WALL (       1 calls)
     hinit0       :      0.08s CPU      0.09s WALL (       1 calls)

     Called by electrons:
     c_bands      :      0.82s CPU      0.86s WALL (       8 calls)
     sum_band     :      0.25s CPU      0.30s WALL (       8 calls)
     v_of_rho     :      0.05s CPU      0.05s WALL (       9 calls)
     newd         :      0.17s CPU      0.20s WALL (       9 calls)
     mix_rho      :      0.01s CPU      0.01s WALL (       8 calls)

     Called by c_bands:
     init_us_2    :      0.01s CPU      0.01s WALL (      72 calls)
     cegterg      :      0.76s CPU      0.80s WALL (      32 calls)

     Called by sum_band:
     sum_band:bec :      0.00s CPU      0.00s WALL (      32 calls)
     addusdens    :      0.13s CPU      0.18s WALL (       8 calls)

     Called by *egterg:
     h_psi        :      0.47s CPU      0.51s WALL (     107 calls)
     s_psi        :      0.03s CPU      0.03s WALL (     107 calls)
     g_psi        :      0.00s CPU      0.00s WALL (      71 calls)
     cdiaghg      :      0.21s CPU      0.22s WALL (     103 calls)

     Called by h_psi:
     h_psi:pot    :      0.47s CPU      0.51s WALL (     107 calls)
     h_psi:calbec :      0.04s CPU      0.04s WALL (     107 calls)
     vloc_psi     :      0.40s CPU      0.43s WALL (     107 calls)
     add_vuspsi   :      0.03s CPU      0.03s WALL (     107 calls)

     General routines
     calbec       :      0.06s CPU      0.06s WALL (     155 calls)
     fft          :      0.04s CPU      0.04s WALL (     126 calls)
     ffts         :      0.00s CPU      0.00s WALL (      17 calls)
     fftw         :      0.45s CPU      0.48s WALL (    6422 calls)
     interpolate  :      0.00s CPU      0.00s WALL (       9 calls)
 
     Parallel routines
     fft_scatt_xy :      0.04s CPU      0.05s WALL (    6565 calls)
     fft_scatt_yz :      0.29s CPU      0.31s WALL (    6565 calls)
 
     PWSCF        :      1.63s CPU      2.97s WALL

 
   This run was terminated on:  17:30:27   9Sep2020            

=------------------------------------------------------------------------------=
   JOB DONE.
=------------------------------------------------------------------------------=

     Program PWSCF v.6.4.1 starts on  9Sep2020 at 17:30:28 

     This program is part of the open-source Quantum ESPRESSO suite
     for quantum simulation of materials; please cite
         "P. Giannozzi et al., J. Phys.:Condens. Matter 21 395502 (2009);
         "P. Giannozzi et al., J. Phys.:Condens. Matter 29 465901 (2017);
          URL http://www.quantum-espresso.org", 
     in publications or presentations arising from this work. More details at
     http://www.quantum-espresso.org/quote

     Parallel version (MPI & OpenMP), running on      20 processor cores
     Number of MPI processes:                20
     Threads/MPI process:                     1

     MPI processes distributed on     1 nodes
     R & G space division:  proc/nbgrp/npool/nimage =      20
     Reading input from /home/hpc/rzku/phyv025h/Exercise_sheet_1/Exercise_1/1_d/MgO_050_8.in

     Current dimensions of program PWSCF are:
     Max number of different atomic species (ntypx) = 10
     Max number of k-points (npk) =  40000
     Max angular momentum in pseudopotentials (lmaxx) =  3

     IMPORTANT: XC functional enforced from input :
     Exchange-correlation      = PBE ( 1  4  3  4 0 0)
     Any further DFT definition will be discarded
     Please, verify this is what you really want


     Subspace diagonalization in iterative solution of the eigenvalue problem:
     a serial algorithm will be used

     Found symmetry operation: I + ( -0.5000 -0.5000  0.0000)
     This is a supercell, fractional translations are disabled
     Message from routine setup:
     DEPRECATED: symmetry with ibrav=0, use correct ibrav instead
 
     Parallelization info
     --------------------
     sticks:   dense  smooth     PW     G-vecs:    dense   smooth      PW
     Min         101      50     14                 3401     1192     184
     Max         102      51     15                 3403     1194     187
     Sum        2025    1005    293                68051    23871    3695
 


     bravais-lattice index     =            0
     lattice parameter (alat)  =       7.9557  a.u.
     unit-cell volume          =     503.5503 (a.u.)^3
     number of atoms/cell      =            8
     number of atomic types    =            2
     number of electrons       =        64.00
     number of Kohn-Sham states=           32
     kinetic-energy cutoff     =      50.0000  Ry
     charge density cutoff     =     400.0000  Ry
     convergence threshold     =      1.0E-08
     mixing beta               =       0.7000
     number of iterations used =            8  plain     mixing
     Exchange-correlation      = PBE ( 1  4  3  4 0 0)

     celldm(1)=   7.955747  celldm(2)=   0.000000  celldm(3)=   0.000000
     celldm(4)=   0.000000  celldm(5)=   0.000000  celldm(6)=   0.000000

     crystal axes: (cart. coord. in units of alat)
               a(1) = (   1.000000   0.000000   0.000000 )  
               a(2) = (   0.000000   1.000000   0.000000 )  
               a(3) = (   0.000000   0.000000   1.000000 )  

     reciprocal axes: (cart. coord. in units 2 pi/alat)
               b(1) = (  1.000000  0.000000  0.000000 )  
               b(2) = (  0.000000  1.000000  0.000000 )  
               b(3) = (  0.000000  0.000000  1.000000 )  


     PseudoPot. # 1 for Mg read from file:
     ./Mg.uspp.UPF
     MD5 check sum: 8ffbd8f729fef71095aac5bd8316fb1f
     Pseudo is Ultrasoft, Zval = 10.0
     Generated by new atomic code, or converted to UPF format
     Using radial grid of  821 points,  7 beta functions with: 
                l(1) =   0
                l(2) =   0
                l(3) =   0
                l(4) =   1
                l(5) =   1
                l(6) =   2
                l(7) =   2
     Q(r) pseudized with  8 coefficients,  rinner =    1.200   1.200   1.200
                                                       1.200   1.200

     PseudoPot. # 2 for O  read from file:
     ./O.uspp.UPF
     MD5 check sum: 734c27235a0248c51dbae37a1fbe46ec
     Pseudo is Ultrasoft + core correction, Zval =  6.0
     Generated by new atomic code, or converted to UPF format
     Using radial grid of  737 points,  5 beta functions with: 
                l(1) =   0
                l(2) =   0
                l(3) =   1
                l(4) =   1
                l(5) =   2
     Q(r) pseudized with  8 coefficients,  rinner =    0.900   0.900   0.900
                                                       0.900   0.900

     atomic species   valence    mass     pseudopotential
        Mg            10.00    24.30500     Mg( 1.00)
        O              6.00    15.99900     O ( 1.00)

     48 Sym. Ops., with inversion, found



   Cartesian axes

     site n.     atom                  positions (alat units)
         1           Mg  tau(   1) = (   0.0000000   0.0000000   0.0000000  )
         2           Mg  tau(   2) = (   0.5000000   0.5000000   0.0000000  )
         3           Mg  tau(   3) = (   0.5000000   0.0000000   0.5000000  )
         4           Mg  tau(   4) = (   0.0000000   0.5000000   0.5000000  )
         5           O   tau(   5) = (   0.5000000   0.0000000   0.0000000  )
         6           O   tau(   6) = (   0.0000000   0.5000000   0.0000000  )
         7           O   tau(   7) = (   0.0000000   0.0000000   0.5000000  )
         8           O   tau(   8) = (   0.5000000   0.5000000   0.5000000  )

     number of k points=     4
                       cart. coord. in units 2pi/alat
        k(    1) = (   0.0000000   0.0000000   0.0000000), wk =   0.0740741
        k(    2) = (   0.0000000   0.0000000   0.3333333), wk =   0.4444444
        k(    3) = (   0.0000000   0.3333333   0.3333333), wk =   0.8888889
        k(    4) = (   0.3333333   0.3333333   0.3333333), wk =   0.5925926

     Dense  grid:    68051 G-vectors     FFT dimensions: (  54,  54,  54)

     Smooth grid:    23871 G-vectors     FFT dimensions: (  36,  36,  36)

     Estimated max dynamical RAM per process >      20.03 MB

     Estimated total dynamical RAM >     400.54 MB

     Check: negative core charge=   -0.000002

     Initial potential from superposition of free atoms

     starting charge   62.79908, renormalised to   64.00000
     Starting wfcs are   36 randomized atomic wfcs

     total cpu time spent up to now is        0.3 secs

     Self-consistent Calculation

     iteration #  1     ecut=    50.00 Ry     beta= 0.70
     Davidson diagonalization with overlap
     ethr =  1.00E-02,  avg # of iterations =  2.0

     total cpu time spent up to now is        0.5 secs

     total energy              =    -630.82770453 Ry
     Harris-Foulkes estimate   =    -632.01112711 Ry
     estimated scf accuracy    <       1.54217061 Ry

     iteration #  2     ecut=    50.00 Ry     beta= 0.70
     Davidson diagonalization with overlap
     ethr =  2.41E-03,  avg # of iterations =  2.8

     total cpu time spent up to now is        0.8 secs

     total energy              =    -631.21265125 Ry
     Harris-Foulkes estimate   =    -631.88695956 Ry
     estimated scf accuracy    <       1.39952216 Ry

     iteration #  3     ecut=    50.00 Ry     beta= 0.70
     Davidson diagonalization with overlap
     ethr =  2.19E-03,  avg # of iterations =  2.0

     total cpu time spent up to now is        0.9 secs

     total energy              =    -631.49120137 Ry
     Harris-Foulkes estimate   =    -631.49473175 Ry
     estimated scf accuracy    <       0.01068195 Ry

     iteration #  4     ecut=    50.00 Ry     beta= 0.70
     Davidson diagonalization with overlap
     ethr =  1.67E-05,  avg # of iterations =  2.0

     total cpu time spent up to now is        1.1 secs

     total energy              =    -631.49271277 Ry
     Harris-Foulkes estimate   =    -631.49271832 Ry
     estimated scf accuracy    <       0.00039560 Ry

     iteration #  5     ecut=    50.00 Ry     beta= 0.70
     Davidson diagonalization with overlap
     ethr =  6.18E-07,  avg # of iterations =  2.0

     total cpu time spent up to now is        1.3 secs

     total energy              =    -631.49274475 Ry
     Harris-Foulkes estimate   =    -631.49274380 Ry
     estimated scf accuracy    <       0.00000488 Ry

     iteration #  6     ecut=    50.00 Ry     beta= 0.70
     Davidson diagonalization with overlap
     ethr =  7.62E-09,  avg # of iterations =  2.5

     total cpu time spent up to now is        1.5 secs

     total energy              =    -631.49274554 Ry
     Harris-Foulkes estimate   =    -631.49274571 Ry
     estimated scf accuracy    <       0.00000064 Ry

     iteration #  7     ecut=    50.00 Ry     beta= 0.70
     Davidson diagonalization with overlap
     ethr =  1.00E-09,  avg # of iterations =  2.0

     total cpu time spent up to now is        1.7 secs

     total energy              =    -631.49274557 Ry
     Harris-Foulkes estimate   =    -631.49274558 Ry
     estimated scf accuracy    <       0.00000003 Ry

     iteration #  8     ecut=    50.00 Ry     beta= 0.70
     Davidson diagonalization with overlap
     ethr =  4.33E-11,  avg # of iterations =  2.0

     total cpu time spent up to now is        1.8 secs

     End of self-consistent calculation

          k = 0.0000 0.0000 0.0000 (  2969 PWs)   bands (ev):

   -64.4681 -64.4564 -64.4564 -64.4564 -31.2859 -31.2859 -31.2859 -31.2415
   -31.2415 -31.2415 -31.2415 -31.2415 -31.2415 -31.2126 -31.2126 -31.2126
    -9.3813  -7.8356  -7.8356  -7.8355   3.7813   3.7813   3.7813   6.4999
     6.4999   6.4999   6.4999   6.4999   6.4999   7.8426   7.8426   7.8426

          k = 0.0000 0.0000 0.3333 (  3018 PWs)   bands (ev):

   -64.4652 -64.4594 -64.4564 -64.4564 -31.2747 -31.2747 -31.2693 -31.2525
   -31.2525 -31.2429 -31.2429 -31.2342 -31.2342 -31.2327 -31.2198 -31.2198
    -9.0012  -8.2265  -7.7873  -7.7872   4.3030   4.3030   4.4173   5.6122
     5.6122   6.1761   6.1761   6.2604   6.7916   6.7916   7.4566   7.4566

          k = 0.0000 0.3333 0.3333 (  2984 PWs)   bands (ev):

   -64.4630 -64.4586 -64.4586 -64.4572 -31.2739 -31.2739 -31.2688 -31.2645
   -31.2547 -31.2443 -31.2443 -31.2299 -31.2289 -31.2289 -31.2279 -31.2155
    -8.6811  -8.0689  -8.0688  -7.8459   4.3122   4.3122   4.6255   4.7936
     5.2218   6.0010   6.0010   6.8282   6.8283   6.8458   6.9097   7.5254

          k = 0.3333 0.3333 0.3333 (  3013 PWs)   bands (ev):

   -64.4615 -64.4586 -64.4586 -64.4586 -31.2889 -31.2889 -31.2889 -31.2776
   -31.2332 -31.2332 -31.2332 -31.2263 -31.2263 -31.2263 -31.2190 -31.2190
    -8.4328  -8.0089  -8.0089  -8.0088   3.6796   3.6796   3.6796   4.1763
     6.4081   6.4081   6.4081   7.0035   7.0035   7.0035   7.3427   7.3427

     highest occupied level (ev):     7.8426

!    total energy              =    -631.49274557 Ry
     Harris-Foulkes estimate   =    -631.49274557 Ry
     estimated scf accuracy    <          7.2E-09 Ry

     The total energy is the sum of the following terms:

     one-electron contribution =    -347.35104906 Ry
     hartree contribution      =     193.08701431 Ry
     xc contribution           =     -97.97623514 Ry
     ewald contribution        =    -379.25247568 Ry

     convergence has been achieved in   8 iterations

     Forces acting on atoms (cartesian axes, Ry/au):

     atom    1 type  1   force =     0.00000000    0.00000000    0.00000000
     atom    2 type  1   force =     0.00000000    0.00000000    0.00000000
     atom    3 type  1   force =     0.00000000    0.00000000    0.00000000
     atom    4 type  1   force =     0.00000000    0.00000000    0.00000000
     atom    5 type  2   force =     0.00000000    0.00000000   -0.00000000
     atom    6 type  2   force =     0.00000000    0.00000000    0.00000000
     atom    7 type  2   force =     0.00000000    0.00000000   -0.00000000
     atom    8 type  2   force =     0.00000000    0.00000000    0.00000000

     Total force =     0.000000     Total SCF correction =     0.000000

     Writing output data file MgO_050_8.save/
 
     init_run     :      0.21s CPU      0.23s WALL (       1 calls)
     electrons    :      1.37s CPU      1.72s WALL (       1 calls)
     forces       :      0.07s CPU      0.07s WALL (       1 calls)

     Called by init_run:
     wfcinit      :      0.04s CPU      0.05s WALL (       1 calls)
     potinit      :      0.02s CPU      0.02s WALL (       1 calls)
     hinit0       :      0.08s CPU      0.09s WALL (       1 calls)

     Called by electrons:
     c_bands      :      0.86s CPU      0.88s WALL (       8 calls)
     sum_band     :      0.27s CPU      0.34s WALL (       8 calls)
     v_of_rho     :      0.06s CPU      0.06s WALL (       9 calls)
     newd         :      0.19s CPU      0.23s WALL (       9 calls)
     mix_rho      :      0.01s CPU      0.01s WALL (       8 calls)

     Called by c_bands:
     init_us_2    :      0.01s CPU      0.01s WALL (      72 calls)
     cegterg      :      0.79s CPU      0.82s WALL (      32 calls)

     Called by sum_band:
     sum_band:bec :      0.00s CPU      0.00s WALL (      32 calls)
     addusdens    :      0.16s CPU      0.21s WALL (       8 calls)

     Called by *egterg:
     h_psi        :      0.50s CPU      0.53s WALL (     105 calls)
     s_psi        :      0.04s CPU      0.04s WALL (     105 calls)
     g_psi        :      0.00s CPU      0.00s WALL (      69 calls)
     cdiaghg      :      0.21s CPU      0.21s WALL (     101 calls)

     Called by h_psi:
     h_psi:pot    :      0.50s CPU      0.52s WALL (     105 calls)
     h_psi:calbec :      0.04s CPU      0.05s WALL (     105 calls)
     vloc_psi     :      0.42s CPU      0.44s WALL (     105 calls)
     add_vuspsi   :      0.04s CPU      0.04s WALL (     105 calls)

     General routines
     calbec       :      0.06s CPU      0.07s WALL (     153 calls)
     fft          :      0.05s CPU      0.05s WALL (     126 calls)
     ffts         :      0.00s CPU      0.00s WALL (      17 calls)
     fftw         :      0.46s CPU      0.49s WALL (    6408 calls)
     interpolate  :      0.01s CPU      0.01s WALL (       9 calls)
 
     Parallel routines
     fft_scatt_xy :      0.04s CPU      0.05s WALL (    6551 calls)
     fft_scatt_yz :      0.31s CPU      0.32s WALL (    6551 calls)
 
     PWSCF        :      1.89s CPU      4.43s WALL

 
   This run was terminated on:  17:30:32   9Sep2020            

=------------------------------------------------------------------------------=
   JOB DONE.
=------------------------------------------------------------------------------=

     Program PWSCF v.6.4.1 starts on  9Sep2020 at 17:30:33 

     This program is part of the open-source Quantum ESPRESSO suite
     for quantum simulation of materials; please cite
         "P. Giannozzi et al., J. Phys.:Condens. Matter 21 395502 (2009);
         "P. Giannozzi et al., J. Phys.:Condens. Matter 29 465901 (2017);
          URL http://www.quantum-espresso.org", 
     in publications or presentations arising from this work. More details at
     http://www.quantum-espresso.org/quote

     Parallel version (MPI & OpenMP), running on      20 processor cores
     Number of MPI processes:                20
     Threads/MPI process:                     1

     MPI processes distributed on     1 nodes
     R & G space division:  proc/nbgrp/npool/nimage =      20
     Reading input from /home/hpc/rzku/phyv025h/Exercise_sheet_1/Exercise_1/1_d/MgO_055_8.in

     Current dimensions of program PWSCF are:
     Max number of different atomic species (ntypx) = 10
     Max number of k-points (npk) =  40000
     Max angular momentum in pseudopotentials (lmaxx) =  3

     IMPORTANT: XC functional enforced from input :
     Exchange-correlation      = PBE ( 1  4  3  4 0 0)
     Any further DFT definition will be discarded
     Please, verify this is what you really want


     Subspace diagonalization in iterative solution of the eigenvalue problem:
     a serial algorithm will be used

     Found symmetry operation: I + ( -0.5000 -0.5000  0.0000)
     This is a supercell, fractional translations are disabled
     Message from routine setup:
     DEPRECATED: symmetry with ibrav=0, use correct ibrav instead
 
     Parallelization info
     --------------------
     sticks:   dense  smooth     PW     G-vecs:    dense   smooth      PW
     Min         110      55     15                 3922     1381     205
     Max         111      56     16                 3927     1384     208
     Sum        2217    1101    305                78517    27633    4139
 


     bravais-lattice index     =            0
     lattice parameter (alat)  =       7.9557  a.u.
     unit-cell volume          =     503.5503 (a.u.)^3
     number of atoms/cell      =            8
     number of atomic types    =            2
     number of electrons       =        64.00
     number of Kohn-Sham states=           32
     kinetic-energy cutoff     =      55.0000  Ry
     charge density cutoff     =     440.0000  Ry
     convergence threshold     =      1.0E-08
     mixing beta               =       0.7000
     number of iterations used =            8  plain     mixing
     Exchange-correlation      = PBE ( 1  4  3  4 0 0)

     celldm(1)=   7.955747  celldm(2)=   0.000000  celldm(3)=   0.000000
     celldm(4)=   0.000000  celldm(5)=   0.000000  celldm(6)=   0.000000

     crystal axes: (cart. coord. in units of alat)
               a(1) = (   1.000000   0.000000   0.000000 )  
               a(2) = (   0.000000   1.000000   0.000000 )  
               a(3) = (   0.000000   0.000000   1.000000 )  

     reciprocal axes: (cart. coord. in units 2 pi/alat)
               b(1) = (  1.000000  0.000000  0.000000 )  
               b(2) = (  0.000000  1.000000  0.000000 )  
               b(3) = (  0.000000  0.000000  1.000000 )  


     PseudoPot. # 1 for Mg read from file:
     ./Mg.uspp.UPF
     MD5 check sum: 8ffbd8f729fef71095aac5bd8316fb1f
     Pseudo is Ultrasoft, Zval = 10.0
     Generated by new atomic code, or converted to UPF format
     Using radial grid of  821 points,  7 beta functions with: 
                l(1) =   0
                l(2) =   0
                l(3) =   0
                l(4) =   1
                l(5) =   1
                l(6) =   2
                l(7) =   2
     Q(r) pseudized with  8 coefficients,  rinner =    1.200   1.200   1.200
                                                       1.200   1.200

     PseudoPot. # 2 for O  read from file:
     ./O.uspp.UPF
     MD5 check sum: 734c27235a0248c51dbae37a1fbe46ec
     Pseudo is Ultrasoft + core correction, Zval =  6.0
     Generated by new atomic code, or converted to UPF format
     Using radial grid of  737 points,  5 beta functions with: 
                l(1) =   0
                l(2) =   0
                l(3) =   1
                l(4) =   1
                l(5) =   2
     Q(r) pseudized with  8 coefficients,  rinner =    0.900   0.900   0.900
                                                       0.900   0.900

     atomic species   valence    mass     pseudopotential
        Mg            10.00    24.30500     Mg( 1.00)
        O              6.00    15.99900     O ( 1.00)

     48 Sym. Ops., with inversion, found



   Cartesian axes

     site n.     atom                  positions (alat units)
         1           Mg  tau(   1) = (   0.0000000   0.0000000   0.0000000  )
         2           Mg  tau(   2) = (   0.5000000   0.5000000   0.0000000  )
         3           Mg  tau(   3) = (   0.5000000   0.0000000   0.5000000  )
         4           Mg  tau(   4) = (   0.0000000   0.5000000   0.5000000  )
         5           O   tau(   5) = (   0.5000000   0.0000000   0.0000000  )
         6           O   tau(   6) = (   0.0000000   0.5000000   0.0000000  )
         7           O   tau(   7) = (   0.0000000   0.0000000   0.5000000  )
         8           O   tau(   8) = (   0.5000000   0.5000000   0.5000000  )

     number of k points=     4
                       cart. coord. in units 2pi/alat
        k(    1) = (   0.0000000   0.0000000   0.0000000), wk =   0.0740741
        k(    2) = (   0.0000000   0.0000000   0.3333333), wk =   0.4444444
        k(    3) = (   0.0000000   0.3333333   0.3333333), wk =   0.8888889
        k(    4) = (   0.3333333   0.3333333   0.3333333), wk =   0.5925926

     Dense  grid:    78517 G-vectors     FFT dimensions: (  54,  54,  54)

     Smooth grid:    27633 G-vectors     FFT dimensions: (  40,  40,  40)

     Estimated max dynamical RAM per process >      22.44 MB

     Estimated total dynamical RAM >     448.83 MB

     Check: negative core charge=   -0.000001

     Initial potential from superposition of free atoms

     starting charge   62.79908, renormalised to   64.00000
     Starting wfcs are   36 randomized atomic wfcs

     total cpu time spent up to now is        0.3 secs

     Self-consistent Calculation

     iteration #  1     ecut=    55.00 Ry     beta= 0.70
     Davidson diagonalization with overlap
     ethr =  1.00E-02,  avg # of iterations =  2.0

     total cpu time spent up to now is        0.6 secs

     total energy              =    -630.82671987 Ry
     Harris-Foulkes estimate   =    -632.01228682 Ry
     estimated scf accuracy    <       1.54487867 Ry

     iteration #  2     ecut=    55.00 Ry     beta= 0.70
     Davidson diagonalization with overlap
     ethr =  2.41E-03,  avg # of iterations =  2.8

     total cpu time spent up to now is        0.8 secs

     total energy              =    -631.21309495 Ry
     Harris-Foulkes estimate   =    -631.88930931 Ry
     estimated scf accuracy    <       1.40383101 Ry

     iteration #  3     ecut=    55.00 Ry     beta= 0.70
     Davidson diagonalization with overlap
     ethr =  2.19E-03,  avg # of iterations =  2.0

     total cpu time spent up to now is        1.0 secs

     total energy              =    -631.49238883 Ry
     Harris-Foulkes estimate   =    -631.49587734 Ry
     estimated scf accuracy    <       0.01059871 Ry

[...]
   -31.2566 -31.2461 -31.2461 -31.2318 -31.2308 -31.2308 -31.2298 -31.2174
    -8.6800  -8.0677  -8.0677  -7.8447   4.3116   4.3117   4.6247   4.7929
     5.2212   6.0002   6.0003   6.8274   6.8274   6.8451   6.9088   7.5246

          k = 0.3333 0.3333 0.3333 (  7844 PWs)   bands (ev):

   -64.4630 -64.4601 -64.4601 -64.4601 -31.2907 -31.2907 -31.2907 -31.2795
   -31.2351 -31.2351 -31.2351 -31.2281 -31.2281 -31.2281 -31.2209 -31.2209
    -8.4317  -8.0077  -8.0077  -8.0077   3.6790   3.6790   3.6790   4.1757
     6.4074   6.4074   6.4074   7.0028   7.0028   7.0028   7.3420   7.3420

     highest occupied level (ev):     7.8417

!    total energy              =    -631.49683177 Ry
     Harris-Foulkes estimate   =    -631.49683177 Ry
     estimated scf accuracy    <          4.0E-10 Ry

     The total energy is the sum of the following terms:

     one-electron contribution =    -347.35522547 Ry
     hartree contribution      =     193.08636211 Ry
     xc contribution           =     -97.97549272 Ry
     ewald contribution        =    -379.25247568 Ry

     convergence has been achieved in   9 iterations

     Forces acting on atoms (cartesian axes, Ry/au):

     atom    1 type  1   force =     0.00000000    0.00000000    0.00000000
     atom    2 type  1   force =     0.00000000    0.00000000    0.00000000
     atom    3 type  1   force =     0.00000000    0.00000000    0.00000000
     atom    4 type  1   force =     0.00000000    0.00000000    0.00000000
     atom    5 type  2   force =     0.00000000   -0.00000000    0.00000000
     atom    6 type  2   force =     0.00000000    0.00000000    0.00000000
     atom    7 type  2   force =     0.00000000    0.00000000    0.00000000
     atom    8 type  2   force =     0.00000000    0.00000000    0.00000000

     Total force =     0.000000     Total SCF correction =     0.000000

     Writing output data file MgO_095_8.save/
 
     init_run     :      0.49s CPU      0.53s WALL (       1 calls)
     electrons    :      3.30s CPU      3.83s WALL (       1 calls)
     forces       :      0.14s CPU      0.16s WALL (       1 calls)

     Called by init_run:
     wfcinit      :      0.09s CPU      0.09s WALL (       1 calls)
     potinit      :      0.04s CPU      0.04s WALL (       1 calls)
     hinit0       :      0.13s CPU      0.14s WALL (       1 calls)

     Called by electrons:
     c_bands      :      1.84s CPU      1.90s WALL (       9 calls)
     sum_band     :      0.82s CPU      0.99s WALL (       9 calls)
     v_of_rho     :      0.15s CPU      0.16s WALL (      10 calls)
     newd         :      0.52s CPU      0.65s WALL (      10 calls)
     mix_rho      :      0.02s CPU      0.03s WALL (       9 calls)

     Called by c_bands:
     init_us_2    :      0.03s CPU      0.03s WALL (      80 calls)
     cegterg      :      1.66s CPU      1.72s WALL (      36 calls)

     Called by sum_band:
     sum_band:bec :      0.00s CPU      0.00s WALL (      36 calls)
     addusdens    :      0.54s CPU      0.69s WALL (       9 calls)

     Called by *egterg:
     h_psi        :      1.19s CPU      1.24s WALL (     117 calls)
     s_psi        :      0.11s CPU      0.11s WALL (     117 calls)
     g_psi        :      0.01s CPU      0.01s WALL (      77 calls)
     cdiaghg      :      0.23s CPU      0.23s WALL (     113 calls)

     Called by h_psi:
     h_psi:pot    :      1.18s CPU      1.23s WALL (     117 calls)
     h_psi:calbec :      0.13s CPU      0.13s WALL (     117 calls)
     vloc_psi     :      0.91s CPU      0.95s WALL (     117 calls)
     add_vuspsi   :      0.15s CPU      0.15s WALL (     117 calls)

     General routines
     calbec       :      0.18s CPU      0.19s WALL (     169 calls)
     fft          :      0.12s CPU      0.12s WALL (     139 calls)
     ffts         :      0.01s CPU      0.01s WALL (      19 calls)
     fftw         :      1.01s CPU      1.06s WALL (    7192 calls)
     interpolate  :      0.01s CPU      0.01s WALL (      10 calls)
 
     Parallel routines
     fft_scatt_xy :      0.12s CPU      0.13s WALL (    7350 calls)
     fft_scatt_yz :      0.54s CPU      0.57s WALL (    7350 calls)
 
     PWSCF        :      4.06s CPU      5.28s WALL

 
   This run was terminated on:  17:31:16   9Sep2020            

=------------------------------------------------------------------------------=
   JOB DONE.
=------------------------------------------------------------------------------=

     Program PWSCF v.6.4.1 starts on  9Sep2020 at 17:31:17 

     This program is part of the open-source Quantum ESPRESSO suite
     for quantum simulation of materials; please cite
         "P. Giannozzi et al., J. Phys.:Condens. Matter 21 395502 (2009);
         "P. Giannozzi et al., J. Phys.:Condens. Matter 29 465901 (2017);
          URL http://www.quantum-espresso.org", 
     in publications or presentations arising from this work. More details at
     http://www.quantum-espresso.org/quote

     Parallel version (MPI & OpenMP), running on      20 processor cores
     Number of MPI processes:                20
     Threads/MPI process:                     1

     MPI processes distributed on     1 nodes
     R & G space division:  proc/nbgrp/npool/nimage =      20
     Reading input from /home/hpc/rzku/phyv025h/Exercise_sheet_1/Exercise_1/1_d/MgO_100_8.in

     Current dimensions of program PWSCF are:
     Max number of different atomic species (ntypx) = 10
     Max number of k-points (npk) =  40000
     Max angular momentum in pseudopotentials (lmaxx) =  3

     IMPORTANT: XC functional enforced from input :
     Exchange-correlation      = PBE ( 1  4  3  4 0 0)
     Any further DFT definition will be discarded
     Please, verify this is what you really want


     Subspace diagonalization in iterative solution of the eigenvalue problem:
     a serial algorithm will be used

     Found symmetry operation: I + ( -0.5000 -0.5000  0.0000)
     This is a supercell, fractional translations are disabled
     Message from routine setup:
     DEPRECATED: symmetry with ibrav=0, use correct ibrav instead
 
     Parallelization info
     --------------------
     sticks:   dense  smooth     PW     G-vecs:    dense   smooth      PW
     Min         201     101     27                 9607     3401     487
     Max         202     102     28                 9609     3403     490
     Sum        4025    2025    553               192167    68051    9771
 


     bravais-lattice index     =            0
     lattice parameter (alat)  =       7.9557  a.u.
     unit-cell volume          =     503.5503 (a.u.)^3
     number of atoms/cell      =            8
     number of atomic types    =            2
     number of electrons       =        64.00
     number of Kohn-Sham states=           32
     kinetic-energy cutoff     =     100.0000  Ry
     charge density cutoff     =     800.0000  Ry
     convergence threshold     =      1.0E-08
     mixing beta               =       0.7000
     number of iterations used =            8  plain     mixing
     Exchange-correlation      = PBE ( 1  4  3  4 0 0)

     celldm(1)=   7.955747  celldm(2)=   0.000000  celldm(3)=   0.000000
     celldm(4)=   0.000000  celldm(5)=   0.000000  celldm(6)=   0.000000

     crystal axes: (cart. coord. in units of alat)
               a(1) = (   1.000000   0.000000   0.000000 )  
               a(2) = (   0.000000   1.000000   0.000000 )  
               a(3) = (   0.000000   0.000000   1.000000 )  

     reciprocal axes: (cart. coord. in units 2 pi/alat)
               b(1) = (  1.000000  0.000000  0.000000 )  
               b(2) = (  0.000000  1.000000  0.000000 )  
               b(3) = (  0.000000  0.000000  1.000000 )  


     PseudoPot. # 1 for Mg read from file:
     ./Mg.uspp.UPF
     MD5 check sum: 8ffbd8f729fef71095aac5bd8316fb1f
     Pseudo is Ultrasoft, Zval = 10.0
     Generated by new atomic code, or converted to UPF format
     Using radial grid of  821 points,  7 beta functions with: 
                l(1) =   0
                l(2) =   0
                l(3) =   0
                l(4) =   1
                l(5) =   1
                l(6) =   2
                l(7) =   2
     Q(r) pseudized with  8 coefficients,  rinner =    1.200   1.200   1.200
                                                       1.200   1.200

     PseudoPot. # 2 for O  read from file:
     ./O.uspp.UPF
     MD5 check sum: 734c27235a0248c51dbae37a1fbe46ec
     Pseudo is Ultrasoft + core correction, Zval =  6.0
     Generated by new atomic code, or converted to UPF format
     Using radial grid of  737 points,  5 beta functions with: 
                l(1) =   0
                l(2) =   0
                l(3) =   1
                l(4) =   1
                l(5) =   2
     Q(r) pseudized with  8 coefficients,  rinner =    0.900   0.900   0.900
                                                       0.900   0.900

     atomic species   valence    mass     pseudopotential
        Mg            10.00    24.30500     Mg( 1.00)
        O              6.00    15.99900     O ( 1.00)

     48 Sym. Ops., with inversion, found



   Cartesian axes

     site n.     atom                  positions (alat units)
         1           Mg  tau(   1) = (   0.0000000   0.0000000   0.0000000  )
         2           Mg  tau(   2) = (   0.5000000   0.5000000   0.0000000  )
         3           Mg  tau(   3) = (   0.5000000   0.0000000   0.5000000  )
         4           Mg  tau(   4) = (   0.0000000   0.5000000   0.5000000  )
         5           O   tau(   5) = (   0.5000000   0.0000000   0.0000000  )
         6           O   tau(   6) = (   0.0000000   0.5000000   0.0000000  )
         7           O   tau(   7) = (   0.0000000   0.0000000   0.5000000  )
         8           O   tau(   8) = (   0.5000000   0.5000000   0.5000000  )

     number of k points=     4
                       cart. coord. in units 2pi/alat
        k(    1) = (   0.0000000   0.0000000   0.0000000), wk =   0.0740741
        k(    2) = (   0.0000000   0.0000000   0.3333333), wk =   0.4444444
        k(    3) = (   0.0000000   0.3333333   0.3333333), wk =   0.8888889
        k(    4) = (   0.3333333   0.3333333   0.3333333), wk =   0.5925926

     Dense  grid:   192167 G-vectors     FFT dimensions: (  72,  72,  72)

     Smooth grid:    68051 G-vectors     FFT dimensions: (  54,  54,  54)

     Estimated max dynamical RAM per process >      48.58 MB

     Estimated total dynamical RAM >     971.65 MB

     Check: negative core charge=   -0.000002

     Initial potential from superposition of free atoms

     starting charge   62.79908, renormalised to   64.00000
     Starting wfcs are   36 randomized atomic wfcs

     total cpu time spent up to now is        0.7 secs

     Self-consistent Calculation

     iteration #  1     ecut=   100.00 Ry     beta= 0.70
     Davidson diagonalization with overlap
     ethr =  1.00E-02,  avg # of iterations =  2.0

     total cpu time spent up to now is        1.1 secs

     total energy              =    -630.82399952 Ry
     Harris-Foulkes estimate   =    -632.01235418 Ry
     estimated scf accuracy    <       1.55164038 Ry

     iteration #  2     ecut=   100.00 Ry     beta= 0.70
     Davidson diagonalization with overlap
     ethr =  2.42E-03,  avg # of iterations =  3.0

     total cpu time spent up to now is        1.6 secs

     total energy              =    -631.21443990 Ry
     Harris-Foulkes estimate   =    -631.89473814 Ry
     estimated scf accuracy    <       1.41621074 Ry

     iteration #  3     ecut=   100.00 Ry     beta= 0.70
     Davidson diagonalization with overlap
     ethr =  2.21E-03,  avg # of iterations =  2.0

     total cpu time spent up to now is        2.1 secs

     total energy              =    -631.49545809 Ry
     Harris-Foulkes estimate   =    -631.49880705 Ry
     estimated scf accuracy    <       0.01039056 Ry

     iteration #  4     ecut=   100.00 Ry     beta= 0.70
     Davidson diagonalization with overlap
     ethr =  1.62E-05,  avg # of iterations =  2.0

     total cpu time spent up to now is        2.6 secs

     total energy              =    -631.49698360 Ry
     Harris-Foulkes estimate   =    -631.49698830 Ry
     estimated scf accuracy    <       0.00040711 Ry

     iteration #  5     ecut=   100.00 Ry     beta= 0.70
     Davidson diagonalization with overlap
     ethr =  6.36E-07,  avg # of iterations =  2.0

     total cpu time spent up to now is        3.0 secs

     total energy              =    -631.49702160 Ry
     Harris-Foulkes estimate   =    -631.49701994 Ry
     estimated scf accuracy    <       0.00000465 Ry

     iteration #  6     ecut=   100.00 Ry     beta= 0.70
     Davidson diagonalization with overlap
     ethr =  7.26E-09,  avg # of iterations =  2.2

     total cpu time spent up to now is        3.5 secs

     total energy              =    -631.49702258 Ry
     Harris-Foulkes estimate   =    -631.49702278 Ry
     estimated scf accuracy    <       0.00000086 Ry

     iteration #  7     ecut=   100.00 Ry     beta= 0.70
     Davidson diagonalization with overlap
     ethr =  1.34E-09,  avg # of iterations =  2.0

     total cpu time spent up to now is        3.9 secs

     total energy              =    -631.49702264 Ry
     Harris-Foulkes estimate   =    -631.49702268 Ry
     estimated scf accuracy    <       0.00000016 Ry

     iteration #  8     ecut=   100.00 Ry     beta= 0.70
     Davidson diagonalization with overlap
     ethr =  2.43E-10,  avg # of iterations =  2.0

     total cpu time spent up to now is        4.3 secs

     total energy              =    -631.49702265 Ry
     Harris-Foulkes estimate   =    -631.49702265 Ry
     estimated scf accuracy    <       0.00000002 Ry

     iteration #  9     ecut=   100.00 Ry     beta= 0.70
     Davidson diagonalization with overlap
     ethr =  2.89E-11,  avg # of iterations =  2.0

     total cpu time spent up to now is        4.8 secs

     End of self-consistent calculation

          k = 0.0000 0.0000 0.0000 (  8409 PWs)   bands (ev):

   -64.4696 -64.4580 -64.4580 -64.4580 -31.2878 -31.2878 -31.2878 -31.2434
   -31.2434 -31.2434 -31.2434 -31.2434 -31.2434 -31.2146 -31.2146 -31.2146
    -9.3803  -7.8343  -7.8342  -7.8342   3.7807   3.7807   3.7807   6.4991
     6.4991   6.4991   6.4991   6.4991   6.4991   7.8417   7.8417   7.8417

          k = 0.0000 0.0000 0.3333 (  8545 PWs)   bands (ev):

   -64.4667 -64.4609 -64.4580 -64.4580 -31.2767 -31.2767 -31.2712 -31.2545
   -31.2545 -31.2449 -31.2449 -31.2362 -31.2362 -31.2346 -31.2218 -31.2218
    -9.0001  -8.2252  -7.7860  -7.7859   4.3024   4.3024   4.4168   5.6116
     5.6116   6.1753   6.1753   6.2599   6.7907   6.7907   7.4558   7.4558

          k = 0.0000 0.3333 0.3333 (  8480 PWs)   bands (ev):

   -64.4645 -64.4602 -64.4602 -64.4587 -31.2758 -31.2758 -31.2708 -31.2665
   -31.2567 -31.2462 -31.2462 -31.2319 -31.2309 -31.2309 -31.2299 -31.2175
    -8.6800  -8.0677  -8.0676  -7.8447   4.3116   4.3117   4.6247   4.7929
     5.2212   6.0002   6.0003   6.8274   6.8274   6.8451   6.9088   7.5246

          k = 0.3333 0.3333 0.3333 (  8474 PWs)   bands (ev):

   -64.4631 -64.4602 -64.4602 -64.4602 -31.2908 -31.2908 -31.2908 -31.2796
   -31.2352 -31.2352 -31.2352 -31.2283 -31.2283 -31.2283 -31.2210 -31.2210
    -8.4316  -8.0077  -8.0076  -8.0076   3.6789   3.6789   3.6790   4.1757
     6.4073   6.4074   6.4074   7.0028   7.0028   7.0028   7.3420   7.3420

     highest occupied level (ev):     7.8417

!    total energy              =    -631.49702265 Ry
     Harris-Foulkes estimate   =    -631.49702265 Ry
     estimated scf accuracy    <          5.2E-10 Ry

     The total energy is the sum of the following terms:

     one-electron contribution =    -347.35517975 Ry
     hartree contribution      =     193.08613172 Ry
     xc contribution           =     -97.97549894 Ry
     ewald contribution        =    -379.25247568 Ry

     convergence has been achieved in   9 iterations

     Forces acting on atoms (cartesian axes, Ry/au):

     atom    1 type  1   force =     0.00000000   -0.00000000    0.00000000
     atom    2 type  1   force =     0.00000000    0.00000000    0.00000000
     atom    3 type  1   force =     0.00000000   -0.00000000   -0.00000000
     atom    4 type  1   force =     0.00000000   -0.00000000    0.00000000
     atom    5 type  2   force =     0.00000000    0.00000000    0.00000000
     atom    6 type  2   force =     0.00000000    0.00000000    0.00000000
     atom    7 type  2   force =     0.00000000    0.00000000    0.00000000
     atom    8 type  2   force =     0.00000000    0.00000000    0.00000000

     Total force =     0.000000     Total SCF correction =     0.000000

     Writing output data file MgO_100_8.save/
 
     init_run     :      0.53s CPU      0.57s WALL (       1 calls)
     electrons    :      3.76s CPU      4.16s WALL (       1 calls)
     forces       :      0.16s CPU      0.17s WALL (       1 calls)

     Called by init_run:
     wfcinit      :      0.10s CPU      0.11s WALL (       1 calls)
     potinit      :      0.04s CPU      0.04s WALL (       1 calls)
     hinit0       :      0.14s CPU      0.15s WALL (       1 calls)

     Called by electrons:
     c_bands      :      2.15s CPU      2.19s WALL (       9 calls)
     sum_band     :      0.91s CPU      1.09s WALL (       9 calls)
     v_of_rho     :      0.16s CPU      0.17s WALL (      10 calls)
     newd         :      0.57s CPU      0.69s WALL (      10 calls)
     mix_rho      :      0.03s CPU      0.03s WALL (       9 calls)

     Called by c_bands:
     init_us_2    :      0.04s CPU      0.04s WALL (      80 calls)
     cegterg      :      1.96s CPU      2.00s WALL (      36 calls)

     Called by sum_band:
     sum_band:bec :      0.00s CPU      0.00s WALL (      36 calls)
     addusdens    :      0.59s CPU      0.75s WALL (       9 calls)

     Called by *egterg:
     h_psi        :      1.45s CPU      1.50s WALL (     117 calls)
     s_psi        :      0.12s CPU      0.12s WALL (     117 calls)
     g_psi        :      0.01s CPU      0.01s WALL (      77 calls)
     cdiaghg      :      0.23s CPU      0.23s WALL (     113 calls)

     Called by h_psi:
     h_psi:pot    :      1.44s CPU      1.49s WALL (     117 calls)
     h_psi:calbec :      0.15s CPU      0.15s WALL (     117 calls)
     vloc_psi     :      1.14s CPU      1.18s WALL (     117 calls)
     add_vuspsi   :      0.15s CPU      0.16s WALL (     117 calls)

     General routines
     calbec       :      0.21s CPU      0.21s WALL (     169 calls)
     fft          :      0.12s CPU      0.12s WALL (     139 calls)
     ffts         :      0.01s CPU      0.01s WALL (      19 calls)
     fftw         :      1.26s CPU      1.31s WALL (    7204 calls)
     interpolate  :      0.01s CPU      0.01s WALL (      10 calls)
 
     Parallel routines
     fft_scatt_xy :      0.14s CPU      0.15s WALL (    7362 calls)
     fft_scatt_yz :      0.61s CPU      0.63s WALL (    7362 calls)
 
     PWSCF        :      4.72s CPU      5.60s WALL

 
   This run was terminated on:  17:31:23   9Sep2020            

=------------------------------------------------------------------------------=
   JOB DONE.
=------------------------------------------------------------------------------=
Starting epilogue... Wed Sep  9 17:31:23 CEST 2020
=== JOB_STATISTICS ===
=== current date     : Wed Sep  9 17:31:24 CEST 2020
= Job-ID             : 1346727.eadm
= Job-Name           : MoS2.phon
= Queue              : devel
= PBS_O_WORKDIR      : /home/hpc/rzku/phyv025h/Exercise_sheet_1/Exercise_1
= Requested resources: ncpus=1,neednodes=2:ppn=40,nodes=2:ppn=40,walltime=01:00:00
= Used resources     : cput=00:17:42,mem=1497324kb,vmem=11040340kb,walltime=00:01:12
= Node list          : e0108,e0107
= AccessKey          : c4184b5d
======================
Power management available, setting all CPUs to ondemand govenor
End of epilogue: Wed Sep  9 17:31:24 CEST 2020
