Starting prologue... Fri Sep 11 10:44:44 CEST 2020
Master node: e0108
Kill all process from other users
Adjust oom killer config
Clearing buffers and caches on the nodes.
Power management available, enabling ondemand governor
End of prologue: Fri Sep 11 10:44:51 CEST 2020
/home/hpc/rzku/phyv025h/Exercise_sheet_2/Exercise_1

     Program PWSCF v.6.4.1 starts on 11Sep2020 at 10:44:53 

     This program is part of the open-source Quantum ESPRESSO suite
     for quantum simulation of materials; please cite
         "P. Giannozzi et al., J. Phys.:Condens. Matter 21 395502 (2009);
         "P. Giannozzi et al., J. Phys.:Condens. Matter 29 465901 (2017);
          URL http://www.quantum-espresso.org", 
     in publications or presentations arising from this work. More details at
     http://www.quantum-espresso.org/quote

     Parallel version (MPI & OpenMP), running on      20 processor cores
     Number of MPI processes:                20
     Threads/MPI process:                     1

     MPI processes distributed on     1 nodes
     R & G space division:  proc/nbgrp/npool/nimage =      20
     Reading input from MgO_b.in

     Current dimensions of program PWSCF are:
     Max number of different atomic species (ntypx) = 10
     Max number of k-points (npk) =  40000
     Max angular momentum in pseudopotentials (lmaxx) =  3

     IMPORTANT: XC functional enforced from input :
     Exchange-correlation      = LDA ( 1  1  0  0 0 0)
     Any further DFT definition will be discarded
     Please, verify this is what you really want


     Subspace diagonalization in iterative solution of the eigenvalue problem:
     a serial algorithm will be used

     Found symmetry operation: I + ( -0.5000 -0.5000  0.0000)
     This is a supercell, fractional translations are disabled
     Message from routine setup:
     DEPRECATED: symmetry with ibrav=0, use correct ibrav instead
 
     Parallelization info
     --------------------
     sticks:   dense  smooth     PW     G-vecs:    dense   smooth      PW
     Min          74      74     21                 2124     2124     333
     Max          75      75     23                 2126     2126     336
     Sum        1481    1481    429                42499    42499    6667
 


     bravais-lattice index     =            0
     lattice parameter (alat)  =       7.8479  a.u.
     unit-cell volume          =     483.3402 (a.u.)^3
     number of atoms/cell      =            8
     number of atomic types    =            2
     number of electrons       =        64.00
     number of Kohn-Sham states=           32
     kinetic-energy cutoff     =      75.0000  Ry
     charge density cutoff     =     300.0000  Ry
     convergence threshold     =      1.0E-10
     mixing beta               =       0.7000
     number of iterations used =            8  plain     mixing
     Exchange-correlation      = LDA ( 1  1  0  0 0 0)
     nstep                     =           50


     celldm(1)=   7.847855  celldm(2)=   0.000000  celldm(3)=   0.000000
     celldm(4)=   0.000000  celldm(5)=   0.000000  celldm(6)=   0.000000

     crystal axes: (cart. coord. in units of alat)
               a(1) = (   1.000000   0.000000   0.000000 )  
               a(2) = (   0.000000   1.000000   0.000000 )  
               a(3) = (   0.000000   0.000000   1.000000 )  

     reciprocal axes: (cart. coord. in units 2 pi/alat)
               b(1) = (  1.000000  0.000000  0.000000 )  
               b(2) = (  0.000000  1.000000  0.000000 )  
               b(3) = (  0.000000  0.000000  1.000000 )  


     PseudoPot. # 1 for Mg read from file:
     ./Mg.nc.UPF
     MD5 check sum: 4c04d8c6e0476e83eaecaf72fa8acc4d
     Pseudo is Norm-conserving, Zval = 10.0
     Generated using ONCVPSP code by D. R. Hamann
     Using radial grid of 1510 points,  4 beta functions with: 
                l(1) =   0
                l(2) =   0
                l(3) =   1
                l(4) =   1

     PseudoPot. # 2 for O  read from file:
     ./O.nc.UPF
     MD5 check sum: 3e3f909f7470e8921608ab6b1f57bbae
     Pseudo is Norm-conserving + core correction, Zval =  6.0
     Generated using ONCVPSP code by D. R. Hamann
     Using radial grid of  936 points,  5 beta functions with: 
                l(1) =   0
                l(2) =   0
                l(3) =   1
                l(4) =   1
                l(5) =   2

     atomic species   valence    mass     pseudopotential
        Mg            10.00    24.30000     Mg( 1.00)
        O              6.00    16.00000     O ( 1.00)

     48 Sym. Ops., with inversion, found



   Cartesian axes

     site n.     atom                  positions (alat units)
         1           Mg  tau(   1) = (   0.0000000   0.0000000   0.0000000  )
         2           Mg  tau(   2) = (   0.5000000   0.5000000   0.0000000  )
         3           Mg  tau(   3) = (   0.5000000   0.0000000   0.5000000  )
         4           Mg  tau(   4) = (   0.0000000   0.5000000   0.5000000  )
         5           O   tau(   5) = (   0.5000000   0.0000000   0.0000000  )
         6           O   tau(   6) = (   0.0000000   0.5000000   0.0000000  )
         7           O   tau(   7) = (   0.0000000   0.0000000   0.5000000  )
         8           O   tau(   8) = (   0.5000000   0.5000000   0.5000000  )

     number of k points=    10
                       cart. coord. in units 2pi/alat
        k(    1) = (   0.0000000   0.0000000   0.0000000), wk =   0.0312500
        k(    2) = (   0.0000000   0.0000000   0.2500000), wk =   0.1875000
        k(    3) = (   0.0000000   0.0000000  -0.5000000), wk =   0.0937500
        k(    4) = (   0.0000000   0.2500000   0.2500000), wk =   0.3750000
        k(    5) = (   0.0000000   0.2500000  -0.5000000), wk =   0.3750000
        k(    6) = (   0.0000000  -0.5000000  -0.5000000), wk =   0.0937500
        k(    7) = (   0.2500000   0.2500000   0.2500000), wk =   0.2500000
        k(    8) = (   0.2500000   0.2500000  -0.5000000), wk =   0.3750000
        k(    9) = (   0.2500000  -0.5000000  -0.5000000), wk =   0.1875000
        k(   10) = (  -0.5000000  -0.5000000  -0.5000000), wk =   0.0312500

     Dense  grid:    42499 G-vectors     FFT dimensions: (  45,  45,  45)

     Estimated max dynamical RAM per process >       9.92 MB

     Estimated total dynamical RAM >     198.30 MB

     Check: negative core charge=   -0.000002

     Initial potential from superposition of free atoms

     starting charge   63.99678, renormalised to   64.00000
     Starting wfcs are   36 randomized atomic wfcs

     total cpu time spent up to now is        1.1 secs

     Self-consistent Calculation

     iteration #  1     ecut=    75.00 Ry     beta= 0.70
     Davidson diagonalization with overlap
     ethr =  1.00E-02,  avg # of iterations =  2.0

     total cpu time spent up to now is        1.6 secs

     total energy              =    -605.57442689 Ry
     Harris-Foulkes estimate   =    -606.47297463 Ry
     estimated scf accuracy    <       1.20721700 Ry

     iteration #  2     ecut=    75.00 Ry     beta= 0.70
     Davidson diagonalization with overlap
     ethr =  1.89E-03,  avg # of iterations =  2.9

     total cpu time spent up to now is        2.0 secs

     total energy              =    -605.87761859 Ry
     Harris-Foulkes estimate   =    -606.39912074 Ry
     estimated scf accuracy    <       1.04059123 Ry

     iteration #  3     ecut=    75.00 Ry     beta= 0.70
     Davidson diagonalization with overlap
     ethr =  1.63E-03,  avg # of iterations =  2.0

     total cpu time spent up to now is        2.4 secs

     total energy              =    -606.08978323 Ry
     Harris-Foulkes estimate   =    -606.09154226 Ry
     estimated scf accuracy    <       0.00502038 Ry

     iteration #  4     ecut=    75.00 Ry     beta= 0.70
     Davidson diagonalization with overlap
     ethr =  7.84E-06,  avg # of iterations =  2.0

     total cpu time spent up to now is        2.8 secs

     total energy              =    -606.09068266 Ry
     Harris-Foulkes estimate   =    -606.09069077 Ry
     estimated scf accuracy    <       0.00002724 Ry

     iteration #  5     ecut=    75.00 Ry     beta= 0.70
     Davidson diagonalization with overlap
     ethr =  4.26E-08,  avg # of iterations =  3.0

     total cpu time spent up to now is        3.2 secs

     total energy              =    -606.09068969 Ry
     Harris-Foulkes estimate   =    -606.09069122 Ry
     estimated scf accuracy    <       0.00000393 Ry

     iteration #  6     ecut=    75.00 Ry     beta= 0.70
     Davidson diagonalization with overlap
     ethr =  6.14E-09,  avg # of iterations =  2.0

     total cpu time spent up to now is        3.7 secs

     total energy              =    -606.09069046 Ry
     Harris-Foulkes estimate   =    -606.09069063 Ry
     estimated scf accuracy    <       0.00000047 Ry

     iteration #  7     ecut=    75.00 Ry     beta= 0.70
     Davidson diagonalization with overlap
     ethr =  7.36E-10,  avg # of iterations =  2.0

     total cpu time spent up to now is        4.1 secs

     total energy              =    -606.09069045 Ry
     Harris-Foulkes estimate   =    -606.09069050 Ry
     estimated scf accuracy    <       0.00000009 Ry

     iteration #  8     ecut=    75.00 Ry     beta= 0.70
     Davidson diagonalization with overlap
     ethr =  1.47E-10,  avg # of iterations =  2.0

     total cpu time spent up to now is        4.5 secs

     total energy              =    -606.09069047 Ry
     Harris-Foulkes estimate   =    -606.09069047 Ry
     estimated scf accuracy    <          3.6E-09 Ry

     iteration #  9     ecut=    75.00 Ry     beta= 0.70
     Davidson diagonalization with overlap
     ethr =  5.55E-12,  avg # of iterations =  2.0

     total cpu time spent up to now is        4.9 secs

     total energy              =    -606.09069047 Ry
     Harris-Foulkes estimate   =    -606.09069047 Ry
     estimated scf accuracy    <          4.1E-10 Ry

     iteration # 10     ecut=    75.00 Ry     beta= 0.70
     Davidson diagonalization with overlap
     ethr =  6.34E-13,  avg # of iterations =  2.0

     total cpu time spent up to now is        5.3 secs

     End of self-consistent calculation

          k = 0.0000 0.0000 0.0000 (  5377 PWs)   bands (ev):

   -63.4794 -63.4644 -63.4644 -63.4643 -30.1640 -30.1640 -30.1640 -30.1072
   -30.1072 -30.1072 -30.1072 -30.1072 -30.1072 -30.0706 -30.0706 -30.0706
    -9.1235  -7.4073  -7.4073  -7.4073   4.0041   4.0041   4.0041   6.8809
     6.8809   6.8809   6.8809   6.8809   6.8809   8.3091   8.3091   8.3091

          k = 0.0000 0.0000 0.2500 (  5270 PWs)   bands (ev):

   -63.4772 -63.4666 -63.4644 -63.4644 -30.1551 -30.1551 -30.1517 -30.1149
   -30.1149 -30.1079 -30.1079 -30.1014 -30.1014 -30.0855 -30.0752 -30.0752
    -8.8772  -7.6614  -7.3678  -7.3678   4.3137   4.3137   4.3806   6.2906
     6.2906   6.6346   6.6346   7.0579   7.0579   7.2190   8.0609   8.0609

          k = 0.0000 0.0000-0.5000 (  5294 PWs)   bands (ev):

   -63.4719 -63.4719 -63.4644 -63.4643 -30.1349 -30.1349 -30.1349 -30.1349
   -30.1208 -30.1207 -30.1095 -30.1094 -30.0885 -30.0885 -30.0884 -30.0884
    -8.2737  -8.2736  -7.3278  -7.3278   5.1758   5.1758   5.1758   5.1758
     5.5280   5.5280   6.4008   6.4008   7.5240   7.5240   7.5240   7.5240

          k = 0.0000 0.2500 0.2500 (  5287 PWs)   bands (ev):

   -63.4753 -63.4663 -63.4662 -63.4647 -30.1516 -30.1516 -30.1469 -30.1308
   -30.1094 -30.1094 -30.1059 -30.0988 -30.0988 -30.0975 -30.0809 -30.0713
    -8.6508  -7.5783  -7.5783  -7.3682   4.4443   4.4443   4.6142   5.4124
     6.3335   6.5056   6.5056   6.9772   6.9772   7.0896   7.7461   8.1071

          k = 0.0000 0.2500-0.5000 (  5320 PWs)   bands (ev):

   -63.4708 -63.4708 -63.4655 -63.4654 -30.1460 -30.1460 -30.1342 -30.1342
   -30.1286 -30.1285 -30.0953 -30.0953 -30.0951 -30.0951 -30.0815 -30.0815
    -8.1072  -8.1072  -7.4314  -7.4314   4.7033   4.7033   5.1145   5.1145
     5.4449   5.4449   7.0355   7.0355   7.0775   7.0775   7.6451   7.6451

          k = 0.0000-0.5000-0.5000 (  5280 PWs)   bands (ev):

   -63.4681 -63.4681 -63.4681 -63.4680 -30.1484 -30.1483 -30.1483 -30.1483
   -30.1116 -30.1116 -30.1115 -30.1115 -30.0812 -30.0811 -30.0811 -30.0811
    -7.7380  -7.7380  -7.7380  -7.7380   4.5857   4.5857   4.5857   4.5857
     6.1781   6.1781   6.1781   6.1781   7.6003   7.6003   7.6003   7.6003

          k = 0.2500 0.2500 0.2500 (  5286 PWs)   bands (ev):

   -63.4738 -63.4663 -63.4663 -63.4662 -30.1578 -30.1578 -30.1578 -30.1268
   -30.1086 -30.1086 -30.1086 -30.0938 -30.0938 -30.0938 -30.0755 -30.0755
    -8.4466  -7.5324  -7.5323  -7.5323   4.2557   4.2557   4.2557   5.4921
     6.2623   6.2623   6.2623   7.2210   7.2210   7.2210   7.9380   7.9380

          k = 0.2500 0.2500-0.5000 (  5302 PWs)   bands (ev):

   -63.4700 -63.4700 -63.4663 -63.4662 -30.1634 -30.1634 -30.1516 -30.1516
   -30.1081 -30.1081 -30.0903 -30.0903 -30.0847 -30.0846 -30.0843 -30.0843
    -7.9700  -7.9700  -7.4856  -7.4856   4.0446   4.0446   4.4920   4.4920
     6.2464   6.2464   7.2466   7.2466   7.3875   7.3875   7.5609   7.5609

          k = 0.2500-0.5000-0.5000 (  5292 PWs)   bands (ev):

   -63.4681 -63.4681 -63.4681 -63.4680 -30.1685 -30.1684 -30.1684 -30.1684
   -30.0927 -30.0926 -30.0926 -30.0926 -30.0811 -30.0811 -30.0811 -30.0811
    -7.6861  -7.6861  -7.6861  -7.6861   3.8551   3.8551   3.8551   3.8551
     7.0083   7.0083   7.0083   7.0083   7.5994   7.5994   7.5994   7.5994

          k =-0.5000-0.5000-0.5000 (  5400 PWs)   bands (ev):

   -63.4681 -63.4681 -63.4681 -63.4680 -30.1824 -30.1823 -30.1823 -30.1823
   -30.0814 -30.0814 -30.0814 -30.0814 -30.0814 -30.0814 -30.0814 -30.0814
    -7.6332  -7.6332  -7.6332  -7.6332   3.3808   3.3808   3.3808   3.3808
     7.5984   7.5984   7.5984   7.5984   7.5984   7.5984   7.5984   7.5984

     highest occupied level (ev):     8.3091

!    total energy              =    -606.09069047 Ry
     Harris-Foulkes estimate   =    -606.09069047 Ry
     estimated scf accuracy    <          1.1E-11 Ry

     The total energy is the sum of the following terms:

     one-electron contribution =    -287.82351664 Ry
     hartree contribution      =     161.61354985 Ry
     xc contribution           =     -95.41431056 Ry
     ewald contribution        =    -384.46641311 Ry

     convergence has been achieved in  10 iterations

     Forces acting on atoms (cartesian axes, Ry/au):

     atom    1 type  1   force =     0.00000000    0.00000000    0.00000000
     atom    2 type  1   force =     0.00000000    0.00000000    0.00000000
     atom    3 type  1   force =     0.00000000    0.00000000    0.00000000
     atom    4 type  1   force =     0.00000000    0.00000000    0.00000000
     atom    5 type  2   force =     0.00000000    0.00000000   -0.00000000
     atom    6 type  2   force =     0.00000000    0.00000000    0.00000000
     atom    7 type  2   force =     0.00000000    0.00000000    0.00000000
     atom    8 type  2   force =     0.00000000    0.00000000    0.00000000

     Total force =     0.000000     Total SCF correction =     0.000000


     Computing stress (Cartesian axis) and pressure

          total   stress  (Ry/bohr**3)                   (kbar)     P=   -0.02
  -0.00000016   0.00000000   0.00000000         -0.02      0.00      0.00
   0.00000000  -0.00000016   0.00000000          0.00     -0.02      0.00
   0.00000000   0.00000000  -0.00000016          0.00      0.00     -0.02


     BFGS Geometry Optimization

     bfgs converged in   1 scf cycles and   0 bfgs steps
     (criteria: energy <  1.0E-04 Ry, force <  4.0E-04Ry/Bohr, cell <  5.0E-02kbar)

     End of BFGS Geometry Optimization

     Final enthalpy =    -606.0906904666 Ry
Begin final coordinates
     new unit-cell volume =    483.34024 a.u.^3 (    71.62363 Ang^3 )
     density =      3.73730 g/cm^3

CELL_PARAMETERS (angstrom)
   4.152906127   0.000000000   0.000000000
   0.000000000   4.152906127   0.000000000
   0.000000000   0.000000000   4.152906127

ATOMIC_POSITIONS (crystal)
Mg       0.000000000   0.000000000   0.000000000
Mg       0.500000000   0.500000000   0.000000000
Mg       0.500000000   0.000000000   0.500000000
Mg       0.000000000   0.500000000   0.500000000
O        0.500000000   0.000000000   0.000000000
O        0.000000000   0.500000000   0.000000000
O        0.000000000   0.000000000   0.500000000
O        0.500000000   0.500000000   0.500000000
End final coordinates



     Writing output data file MgO.save/

     A final scf calculation at the relaxed structure.
     The G-vectors are recalculated for the final unit cell
     Results may differ from those at the preceding step.
 
     Parallelization info
     --------------------
     sticks:   dense  smooth     PW     G-vecs:    dense   smooth      PW
     Min          74      74     21                 2124     2124     333
     Max          75      75     23                 2126     2126     336
     Sum        1481    1481    429                42499    42499    6667
 


     bravais-lattice index     =            0
     lattice parameter (alat)  =       7.8479  a.u.
     unit-cell volume          =     483.3402 (a.u.)^3
     number of atoms/cell      =            8
     number of atomic types    =            2
     number of electrons       =        64.00
     number of Kohn-Sham states=           32
     kinetic-energy cutoff     =      75.0000  Ry
     charge density cutoff     =     300.0000  Ry
     convergence threshold     =      1.0E-10
     mixing beta               =       0.7000
     number of iterations used =            8  plain     mixing
     Exchange-correlation      = LDA ( 1  1  0  0 0 0)

     celldm(1)=   7.847855  celldm(2)=   0.000000  celldm(3)=   0.000000
     celldm(4)=   0.000000  celldm(5)=   0.000000  celldm(6)=   0.000000

     crystal axes: (cart. coord. in units of alat)
               a(1) = (   1.000000   0.000000   0.000000 )  
               a(2) = (   0.000000   1.000000   0.000000 )  
               a(3) = (   0.000000   0.000000   1.000000 )  

     reciprocal axes: (cart. coord. in units 2 pi/alat)
               b(1) = (  1.000000  0.000000  0.000000 )  
               b(2) = (  0.000000  1.000000  0.000000 )  
               b(3) = (  0.000000  0.000000  1.000000 )  


     PseudoPot. # 1 for Mg read from file:
     ./Mg.nc.UPF
     MD5 check sum: 4c04d8c6e0476e83eaecaf72fa8acc4d
     Pseudo is Norm-conserving, Zval = 10.0
     Generated using ONCVPSP code by D. R. Hamann
     Using radial grid of 1510 points,  4 beta functions with: 
                l(1) =   0
                l(2) =   0
                l(3) =   1
                l(4) =   1

     PseudoPot. # 2 for O  read from file:
     ./O.nc.UPF
     MD5 check sum: 3e3f909f7470e8921608ab6b1f57bbae
     Pseudo is Norm-conserving + core correction, Zval =  6.0
     Generated using ONCVPSP code by D. R. Hamann
     Using radial grid of  936 points,  5 beta functions with: 
                l(1) =   0
                l(2) =   0
                l(3) =   1
                l(4) =   1
                l(5) =   2

     atomic species   valence    mass     pseudopotential
        Mg            10.00    24.30000     Mg( 1.00)
        O              6.00    16.00000     O ( 1.00)

     48 Sym. Ops., with inversion, found



   Cartesian axes

     site n.     atom                  positions (alat units)
         1           Mg  tau(   1) = (   0.0000000   0.0000000   0.0000000  )
         2           Mg  tau(   2) = (   0.5000000   0.5000000   0.0000000  )
         3           Mg  tau(   3) = (   0.5000000   0.0000000   0.5000000  )
         4           Mg  tau(   4) = (   0.0000000   0.5000000   0.5000000  )
         5           O   tau(   5) = (   0.5000000   0.0000000   0.0000000  )
         6           O   tau(   6) = (   0.0000000   0.5000000   0.0000000  )
         7           O   tau(   7) = (   0.0000000   0.0000000   0.5000000  )
         8           O   tau(   8) = (   0.5000000   0.5000000   0.5000000  )

     number of k points=    10
                       cart. coord. in units 2pi/alat
        k(    1) = (   0.0000000   0.0000000   0.0000000), wk =   0.0312500
        k(    2) = (   0.0000000   0.0000000   0.2500000), wk =   0.1875000
        k(    3) = (   0.0000000   0.0000000  -0.5000000), wk =   0.0937500
        k(    4) = (   0.0000000   0.2500000   0.2500000), wk =   0.3750000
        k(    5) = (   0.0000000   0.2500000  -0.5000000), wk =   0.3750000
        k(    6) = (   0.0000000  -0.5000000  -0.5000000), wk =   0.0937500
        k(    7) = (   0.2500000   0.2500000   0.2500000), wk =   0.2500000
        k(    8) = (   0.2500000   0.2500000  -0.5000000), wk =   0.3750000
        k(    9) = (   0.2500000  -0.5000000  -0.5000000), wk =   0.1875000
        k(   10) = (  -0.5000000  -0.5000000  -0.5000000), wk =   0.0312500

     Dense  grid:    42499 G-vectors     FFT dimensions: (  45,  45,  45)

     Estimated max dynamical RAM per process >       9.95 MB

     Estimated total dynamical RAM >     198.95 MB

     Check: negative core charge=   -0.000002

     Initial potential from superposition of free atoms

     starting charge   63.99678, renormalised to   64.00000
     Starting wfcs are   36 randomized atomic wfcs

     total cpu time spent up to now is        5.9 secs

     Self-consistent Calculation

     iteration #  1     ecut=    75.00 Ry     beta= 0.70
     Davidson diagonalization with overlap
     ethr =  1.00E-06,  avg # of iterations =  4.9

     total cpu time spent up to now is        6.8 secs

     total energy              =    -605.58441755 Ry
     Harris-Foulkes estimate   =    -606.47723738 Ry
     estimated scf accuracy    <       1.20034115 Ry

     iteration #  2     ecut=    75.00 Ry     beta= 0.70
     Davidson diagonalization with overlap
     ethr =  1.88E-03,  avg # of iterations =  2.8

     total cpu time spent up to now is        7.2 secs

     total energy              =    -605.88068713 Ry
     Harris-Foulkes estimate   =    -606.39343328 Ry
     estimated scf accuracy    <       1.02068201 Ry

     iteration #  3     ecut=    75.00 Ry     beta= 0.70
     Davidson diagonalization with overlap
     ethr =  1.59E-03,  avg # of iterations =  2.0

     total cpu time spent up to now is        7.6 secs

     total energy              =    -606.08977698 Ry
     Harris-Foulkes estimate   =    -606.09163308 Ry
     estimated scf accuracy    <       0.00516787 Ry

     iteration #  4     ecut=    75.00 Ry     beta= 0.70
     Davidson diagonalization with overlap
     ethr =  8.07E-06,  avg # of iterations =  2.0

     total cpu time spent up to now is        8.0 secs

     total energy              =    -606.09068304 Ry
     Harris-Foulkes estimate   =    -606.09068943 Ry
     estimated scf accuracy    <       0.00003057 Ry

     iteration #  5     ecut=    75.00 Ry     beta= 0.70
     Davidson diagonalization with overlap
     ethr =  4.78E-08,  avg # of iterations =  3.0

     total cpu time spent up to now is        8.4 secs

     total energy              =    -606.09068923 Ry
     Harris-Foulkes estimate   =    -606.09069169 Ry
     estimated scf accuracy    <       0.00000543 Ry

     iteration #  6     ecut=    75.00 Ry     beta= 0.70
     Davidson diagonalization with overlap
     ethr =  8.49E-09,  avg # of iterations =  2.0

     total cpu time spent up to now is        8.8 secs

     total energy              =    -606.09069037 Ry
     Harris-Foulkes estimate   =    -606.09069067 Ry
     estimated scf accuracy    <       0.00000062 Ry

     iteration #  7     ecut=    75.00 Ry     beta= 0.70
     Davidson diagonalization with overlap
     ethr =  9.71E-10,  avg # of iterations =  2.0

     total cpu time spent up to now is        9.2 secs

     total energy              =    -606.09069046 Ry
     Harris-Foulkes estimate   =    -606.09069047 Ry
     estimated scf accuracy    <       0.00000002 Ry

     iteration #  8     ecut=    75.00 Ry     beta= 0.70
     Davidson diagonalization with overlap
     ethr =  2.38E-11,  avg # of iterations =  2.0

     total cpu time spent up to now is        9.6 secs

     total energy              =    -606.09069047 Ry
     Harris-Foulkes estimate   =    -606.09069047 Ry
     estimated scf accuracy    <          1.7E-09 Ry

     iteration #  9     ecut=    75.00 Ry     beta= 0.70
     Davidson diagonalization with overlap
     ethr =  2.59E-12,  avg # of iterations =  2.0

     total cpu time spent up to now is       10.0 secs

     End of self-consistent calculation

          k = 0.0000 0.0000 0.0000 (  5377 PWs)   bands (ev):

   -63.4794 -63.4644 -63.4644 -63.4643 -30.1640 -30.1640 -30.1640 -30.1072
   -30.1072 -30.1072 -30.1072 -30.1072 -30.1072 -30.0706 -30.0706 -30.0706
    -9.1235  -7.4073  -7.4073  -7.4073   4.0041   4.0041   4.0041   6.8809
     6.8809   6.8809   6.8809   6.8809   6.8809   8.3091   8.3091   8.3091

          k = 0.0000 0.0000 0.2500 (  5270 PWs)   bands (ev):

   -63.4772 -63.4666 -63.4644 -63.4644 -30.1551 -30.1551 -30.1517 -30.1149
   -30.1149 -30.1079 -30.1079 -30.1014 -30.1014 -30.0855 -30.0752 -30.0752
    -8.8772  -7.6614  -7.3678  -7.3678   4.3137   4.3137   4.3806   6.2906
     6.2906   6.6346   6.6346   7.0580   7.0580   7.2190   8.0609   8.0609

          k = 0.0000 0.0000-0.5000 (  5294 PWs)   bands (ev):

   -63.4719 -63.4719 -63.4644 -63.4643 -30.1349 -30.1349 -30.1349 -30.1349
   -30.1208 -30.1207 -30.1095 -30.1094 -30.0885 -30.0885 -30.0885 -30.0885
    -8.2736  -8.2736  -7.3278  -7.3278   5.1758   5.1758   5.1758   5.1758
     5.5281   5.5281   6.4008   6.4008   7.5240   7.5240   7.5241   7.5241

          k = 0.0000 0.2500 0.2500 (  5287 PWs)   bands (ev):

   -63.4753 -63.4663 -63.4662 -63.4647 -30.1516 -30.1516 -30.1470 -30.1308
   -30.1094 -30.1094 -30.1059 -30.0989 -30.0988 -30.0975 -30.0809 -30.0713
    -8.6508  -7.5783  -7.5783  -7.3682   4.4443   4.4443   4.6142   5.4125
     6.3335   6.5056   6.5056   6.9772   6.9772   7.0896   7.7461   8.1071

          k = 0.0000 0.2500-0.5000 (  5320 PWs)   bands (ev):

   -63.4708 -63.4708 -63.4655 -63.4654 -30.1460 -30.1460 -30.1342 -30.1342
   -30.1286 -30.1285 -30.0953 -30.0953 -30.0951 -30.0951 -30.0815 -30.0815
    -8.1072  -8.1072  -7.4313  -7.4313   4.7033   4.7033   5.1145   5.1145
     5.4449   5.4449   7.0355   7.0355   7.0775   7.0775   7.6451   7.6451

          k = 0.0000-0.5000-0.5000 (  5280 PWs)   bands (ev):

   -63.4681 -63.4681 -63.4681 -63.4680 -30.1484 -30.1483 -30.1483 -30.1483
   -30.1116 -30.1116 -30.1115 -30.1115 -30.0812 -30.0811 -30.0811 -30.0811
    -7.7380  -7.7379  -7.7379  -7.7379   4.5857   4.5857   4.5857   4.5857
     6.1781   6.1781   6.1781   6.1781   7.6003   7.6003   7.6003   7.6003

          k = 0.2500 0.2500 0.2500 (  5286 PWs)   bands (ev):

   -63.4738 -63.4663 -63.4663 -63.4662 -30.1578 -30.1578 -30.1578 -30.1268
   -30.1086 -30.1086 -30.1086 -30.0938 -30.0938 -30.0938 -30.0755 -30.0755
    -8.4466  -7.5323  -7.5323  -7.5323   4.2557   4.2557   4.2557   5.4921
     6.2623   6.2623   6.2623   7.2210   7.2210   7.2210   7.9380   7.9380

          k = 0.2500 0.2500-0.5000 (  5302 PWs)   bands (ev):

   -63.4700 -63.4700 -63.4663 -63.4662 -30.1634 -30.1634 -30.1516 -30.1516
   -30.1081 -30.1081 -30.0903 -30.0903 -30.0847 -30.0847 -30.0843 -30.0843
    -7.9700  -7.9700  -7.4856  -7.4856   4.0446   4.0446   4.4920   4.4920
     6.2464   6.2464   7.2466   7.2466   7.3875   7.3876   7.5609   7.5609

          k = 0.2500-0.5000-0.5000 (  5292 PWs)   bands (ev):

   -63.4681 -63.4681 -63.4681 -63.4680 -30.1685 -30.1685 -30.1685 -30.1684
   -30.0927 -30.0927 -30.0926 -30.0926 -30.0811 -30.0811 -30.0811 -30.0811
    -7.6861  -7.6861  -7.6861  -7.6861   3.8551   3.8551   3.8551   3.8551
     7.0083   7.0083   7.0083   7.0084   7.5994   7.5994   7.5994   7.5995

          k =-0.5000-0.5000-0.5000 (  5400 PWs)   bands (ev):

   -63.4681 -63.4681 -63.4681 -63.4680 -30.1824 -30.1823 -30.1823 -30.1823
   -30.0814 -30.0814 -30.0814 -30.0814 -30.0814 -30.0814 -30.0814 -30.0814
    -7.6332  -7.6332  -7.6332  -7.6332   3.3808   3.3808   3.3808   3.3808
     7.5984   7.5984   7.5984   7.5984   7.5984   7.5984   7.5984   7.5984

     highest occupied level (ev):     8.3091

!    total energy              =    -606.09069047 Ry
     Harris-Foulkes estimate   =    -606.09069047 Ry
     estimated scf accuracy    <          6.8E-11 Ry

     The total energy is the sum of the following terms:

     one-electron contribution =    -287.82350301 Ry
     hartree contribution      =     161.61353015 Ry
     xc contribution           =     -95.41430449 Ry
     ewald contribution        =    -384.46641311 Ry

     convergence has been achieved in   9 iterations

     Forces acting on atoms (cartesian axes, Ry/au):

     atom    1 type  1   force =     0.00000000    0.00000000    0.00000000
     atom    2 type  1   force =     0.00000000    0.00000000   -0.00000000
     atom    3 type  1   force =     0.00000000    0.00000000    0.00000000
     atom    4 type  1   force =     0.00000000    0.00000000    0.00000000
     atom    5 type  2   force =     0.00000000    0.00000000    0.00000000
     atom    6 type  2   force =     0.00000000    0.00000000    0.00000000
     atom    7 type  2   force =     0.00000000    0.00000000    0.00000000
     atom    8 type  2   force =     0.00000000    0.00000000    0.00000000

     Total force =     0.000000     Total SCF correction =     0.000000


     Computing stress (Cartesian axis) and pressure

          total   stress  (Ry/bohr**3)                   (kbar)     P=   -0.02
  -0.00000017   0.00000000   0.00000000         -0.02      0.00      0.00
   0.00000000  -0.00000017   0.00000000          0.00     -0.02      0.00
   0.00000000   0.00000000  -0.00000017          0.00      0.00     -0.02


     Writing output data file MgO.save/
 
     init_run     :      0.45s CPU      0.63s WALL (       2 calls)
     electrons    :      7.94s CPU      8.38s WALL (       2 calls)
     forces       :      0.15s CPU      0.15s WALL (       2 calls)
     stress       :      0.33s CPU      0.33s WALL (       2 calls)

     Called by init_run:
     wfcinit      :      0.27s CPU      0.30s WALL (       2 calls)
     potinit      :      0.06s CPU      0.08s WALL (       2 calls)
     hinit0       :      0.09s CPU      0.17s WALL (       2 calls)

     Called by electrons:
     c_bands      :      7.02s CPU      7.33s WALL (      19 calls)
     sum_band     :      0.87s CPU      0.92s WALL (      19 calls)
     v_of_rho     :      0.02s CPU      0.02s WALL (      21 calls)
     mix_rho      :      0.02s CPU      0.02s WALL (      19 calls)

     Called by c_bands:
     init_us_2    :      0.08s CPU      0.09s WALL (     440 calls)
     cegterg      :      6.70s CPU      7.00s WALL (     190 calls)

     Called by sum_band:

     Called by *egterg:
     h_psi        :      4.82s CPU      5.11s WALL (     656 calls)
     g_psi        :      0.03s CPU      0.03s WALL (     446 calls)
     cdiaghg      :      1.31s CPU      1.32s WALL (     636 calls)

     Called by h_psi:
     h_psi:pot    :      4.80s CPU      5.09s WALL (     656 calls)
     h_psi:calbec :      0.29s CPU      0.30s WALL (     656 calls)
     vloc_psi     :      4.25s CPU      4.51s WALL (     656 calls)
     add_vuspsi   :      0.26s CPU      0.27s WALL (     656 calls)

     General routines
     calbec       :      0.33s CPU      0.34s WALL (     756 calls)
     fft          :      0.02s CPU      0.07s WALL (      77 calls)
     ffts         :      0.00s CPU      0.00s WALL (      19 calls)
     fftw         :      4.68s CPU      4.96s WALL (   40494 calls)
 
     Parallel routines
     fft_scatt_xy :      0.48s CPU      0.51s WALL (   40590 calls)
     fft_scatt_yz :      2.29s CPU      2.44s WALL (   40590 calls)
 
     PWSCF        :      9.09s CPU     11.70s WALL

 
   This run was terminated on:  10:45: 5  11Sep2020            

=------------------------------------------------------------------------------=
   JOB DONE.
=------------------------------------------------------------------------------=
Starting epilogue... Fri Sep 11 10:45:05 CEST 2020
=== JOB_STATISTICS ===
=== current date     : Fri Sep 11 10:45:05 CEST 2020
= Job-ID             : 1347242.eadm
= Job-Name           : MoS2.phon
= Queue              : devel
= PBS_O_WORKDIR      : /home/hpc/rzku/phyv025h/Exercise_sheet_2/Exercise_1
= Requested resources: ncpus=1,neednodes=1:ppn=40,nodes=1:ppn=40,walltime=01:00:00
= Used resources     : cput=00:03:42,mem=0kb,vmem=0kb,walltime=00:00:15
= Node list          : e0108
= AccessKey          : 5d9cc28f
======================
Power management available, setting all CPUs to ondemand govenor
End of epilogue: Fri Sep 11 10:45:06 CEST 2020
