Starting prologue... Fri Sep 11 10:53:04 CEST 2020
Master node: e0108
Kill all process from other users
Adjust oom killer config
Clearing buffers and caches on the nodes.
Power management available, enabling ondemand governor
End of prologue: Fri Sep 11 10:53:10 CEST 2020
/home/hpc/rzku/phyv025h/Exercise_sheet_2/Exercise_1

     Program PWSCF v.6.4.1 starts on 11Sep2020 at 10:53:21 

     This program is part of the open-source Quantum ESPRESSO suite
     for quantum simulation of materials; please cite
         "P. Giannozzi et al., J. Phys.:Condens. Matter 21 395502 (2009);
         "P. Giannozzi et al., J. Phys.:Condens. Matter 29 465901 (2017);
          URL http://www.quantum-espresso.org", 
     in publications or presentations arising from this work. More details at
     http://www.quantum-espresso.org/quote

     Parallel version (MPI & OpenMP), running on      20 processor cores
     Number of MPI processes:                20
     Threads/MPI process:                     1

     MPI processes distributed on     1 nodes
     R & G space division:  proc/nbgrp/npool/nimage =      20
     Reading input from /home/hpc/rzku/phyv025h/Exercise_sheet_2/Exercise_1/MgO_c.in

     Current dimensions of program PWSCF are:
     Max number of different atomic species (ntypx) = 10
     Max number of k-points (npk) =  40000
     Max angular momentum in pseudopotentials (lmaxx) =  3

     IMPORTANT: XC functional enforced from input :
     Exchange-correlation      = LDA ( 1  1  0  0 0 0)
     Any further DFT definition will be discarded
     Please, verify this is what you really want


     Subspace diagonalization in iterative solution of the eigenvalue problem:
     a serial algorithm will be used

     Found symmetry operation: I + ( -0.5000 -0.5000  0.0000)
     This is a supercell, fractional translations are disabled
     Message from routine setup:
     DEPRECATED: symmetry with ibrav=0, use correct ibrav instead
 
     Parallelization info
     --------------------
     sticks:   dense  smooth     PW     G-vecs:    dense   smooth      PW
     Min          97      97     27                 3255     3255     495
     Max          98      98     29                 3260     3260     498
     Sum        1941    1941    561                65117    65117    9939
 


     bravais-lattice index     =            0
     lattice parameter (alat)  =       7.8479  a.u.
     unit-cell volume          =     483.3402 (a.u.)^3
     number of atoms/cell      =            8
     number of atomic types    =            2
     number of electrons       =        64.00
     number of Kohn-Sham states=           32
     kinetic-energy cutoff     =     100.0000  Ry
     charge density cutoff     =     400.0000  Ry
     convergence threshold     =      1.0E-10
     mixing beta               =       0.7000
     number of iterations used =            8  plain     mixing
     Exchange-correlation      = LDA ( 1  1  0  0 0 0)
     nstep                     =           50


     celldm(1)=   7.847855  celldm(2)=   0.000000  celldm(3)=   0.000000
     celldm(4)=   0.000000  celldm(5)=   0.000000  celldm(6)=   0.000000

     crystal axes: (cart. coord. in units of alat)
               a(1) = (   1.000000   0.000000   0.000000 )  
               a(2) = (   0.000000   1.000000   0.000000 )  
               a(3) = (   0.000000   0.000000   1.000000 )  

     reciprocal axes: (cart. coord. in units 2 pi/alat)
               b(1) = (  1.000000  0.000000  0.000000 )  
               b(2) = (  0.000000  1.000000  0.000000 )  
               b(3) = (  0.000000  0.000000  1.000000 )  


     PseudoPot. # 1 for Mg read from file:
     ./Mg.nc.UPF
     MD5 check sum: 4c04d8c6e0476e83eaecaf72fa8acc4d
     Pseudo is Norm-conserving, Zval = 10.0
     Generated using ONCVPSP code by D. R. Hamann
     Using radial grid of 1510 points,  4 beta functions with: 
                l(1) =   0
                l(2) =   0
                l(3) =   1
                l(4) =   1

     PseudoPot. # 2 for O  read from file:
     ./O.nc.UPF
     MD5 check sum: 3e3f909f7470e8921608ab6b1f57bbae
     Pseudo is Norm-conserving + core correction, Zval =  6.0
     Generated using ONCVPSP code by D. R. Hamann
     Using radial grid of  936 points,  5 beta functions with: 
                l(1) =   0
                l(2) =   0
                l(3) =   1
                l(4) =   1
                l(5) =   2

     atomic species   valence    mass     pseudopotential
        Mg            10.00    24.30000     Mg( 1.00)
        O              6.00    16.00000     O ( 1.00)

     48 Sym. Ops., with inversion, found



   Cartesian axes

     site n.     atom                  positions (alat units)
         1           Mg  tau(   1) = (   0.0000000   0.0000000   0.0000000  )
         2           Mg  tau(   2) = (   0.5000000   0.5000000   0.0000000  )
         3           Mg  tau(   3) = (   0.5000000   0.0000000   0.5000000  )
         4           Mg  tau(   4) = (   0.0000000   0.5000000   0.5000000  )
         5           O   tau(   5) = (   0.5000000   0.0000000   0.0000000  )
         6           O   tau(   6) = (   0.0000000   0.5000000   0.0000000  )
         7           O   tau(   7) = (   0.0000000   0.0000000   0.5000000  )
         8           O   tau(   8) = (   0.5000000   0.5000000   0.5000000  )

     number of k points=    35
                       cart. coord. in units 2pi/alat
        k(    1) = (   0.0000000   0.0000000   0.0000000), wk =   0.0039062
        k(    2) = (   0.0000000   0.0000000   0.1250000), wk =   0.0234375
        k(    3) = (   0.0000000   0.0000000   0.2500000), wk =   0.0234375
        k(    4) = (   0.0000000   0.0000000   0.3750000), wk =   0.0234375
        k(    5) = (   0.0000000   0.0000000  -0.5000000), wk =   0.0117188
        k(    6) = (   0.0000000   0.1250000   0.1250000), wk =   0.0468750
        k(    7) = (   0.0000000   0.1250000   0.2500000), wk =   0.0937500
        k(    8) = (   0.0000000   0.1250000   0.3750000), wk =   0.0937500
        k(    9) = (   0.0000000   0.1250000  -0.5000000), wk =   0.0468750
        k(   10) = (   0.0000000   0.2500000   0.2500000), wk =   0.0468750
        k(   11) = (   0.0000000   0.2500000   0.3750000), wk =   0.0937500
        k(   12) = (   0.0000000   0.2500000  -0.5000000), wk =   0.0468750
        k(   13) = (   0.0000000   0.3750000   0.3750000), wk =   0.0468750
        k(   14) = (   0.0000000   0.3750000  -0.5000000), wk =   0.0468750
        k(   15) = (   0.0000000  -0.5000000  -0.5000000), wk =   0.0117188
        k(   16) = (   0.1250000   0.1250000   0.1250000), wk =   0.0312500
        k(   17) = (   0.1250000   0.1250000   0.2500000), wk =   0.0937500
        k(   18) = (   0.1250000   0.1250000   0.3750000), wk =   0.0937500
        k(   19) = (   0.1250000   0.1250000  -0.5000000), wk =   0.0468750
        k(   20) = (   0.1250000   0.2500000   0.2500000), wk =   0.0937500
        k(   21) = (   0.1250000   0.2500000   0.3750000), wk =   0.1875000
        k(   22) = (   0.1250000   0.2500000  -0.5000000), wk =   0.0937500
        k(   23) = (   0.1250000   0.3750000   0.3750000), wk =   0.0937500
        k(   24) = (   0.1250000   0.3750000  -0.5000000), wk =   0.0937500
        k(   25) = (   0.1250000  -0.5000000  -0.5000000), wk =   0.0234375
        k(   26) = (   0.2500000   0.2500000   0.2500000), wk =   0.0312500
        k(   27) = (   0.2500000   0.2500000   0.3750000), wk =   0.0937500
        k(   28) = (   0.2500000   0.2500000  -0.5000000), wk =   0.0468750
        k(   29) = (   0.2500000   0.3750000   0.3750000), wk =   0.0937500
        k(   30) = (   0.2500000   0.3750000  -0.5000000), wk =   0.0937500
        k(   31) = (   0.2500000  -0.5000000  -0.5000000), wk =   0.0234375
        k(   32) = (   0.3750000   0.3750000   0.3750000), wk =   0.0312500
        k(   33) = (   0.3750000   0.3750000  -0.5000000), wk =   0.0468750
        k(   34) = (   0.3750000  -0.5000000  -0.5000000), wk =   0.0234375
        k(   35) = (  -0.5000000  -0.5000000  -0.5000000), wk =   0.0039062

     Dense  grid:    65117 G-vectors     FFT dimensions: (  50,  50,  50)

     Estimated max dynamical RAM per process >      17.77 MB

     Estimated total dynamical RAM >     355.50 MB

     Initial potential from superposition of free atoms

     starting charge   63.99678, renormalised to   64.00000
     Starting wfcs are   36 randomized atomic wfcs

     total cpu time spent up to now is        2.9 secs

     Self-consistent Calculation

     iteration #  1     ecut=   100.00 Ry     beta= 0.70
     Davidson diagonalization with overlap
     ethr =  1.00E-02,  avg # of iterations =  2.0

     total cpu time spent up to now is        4.8 secs

     total energy              =    -605.58083600 Ry
     Harris-Foulkes estimate   =    -606.47858429 Ry
     estimated scf accuracy    <       1.20606306 Ry

     iteration #  2     ecut=   100.00 Ry     beta= 0.70
     Davidson diagonalization with overlap
     ethr =  1.88E-03,  avg # of iterations =  2.9

     total cpu time spent up to now is        6.7 secs

     total energy              =    -605.88303217 Ry
     Harris-Foulkes estimate   =    -606.40418073 Ry
     estimated scf accuracy    <       1.03988657 Ry

     iteration #  3     ecut=   100.00 Ry     beta= 0.70
     Davidson diagonalization with overlap
     ethr =  1.62E-03,  avg # of iterations =  2.0

     total cpu time spent up to now is        8.5 secs

     total energy              =    -606.09508095 Ry
     Harris-Foulkes estimate   =    -606.09685671 Ry
     estimated scf accuracy    <       0.00504546 Ry

     iteration #  4     ecut=   100.00 Ry     beta= 0.70
     Davidson diagonalization with overlap
     ethr =  7.88E-06,  avg # of iterations =  2.0

     total cpu time spent up to now is       10.3 secs

     total energy              =    -606.09600203 Ry
     Harris-Foulkes estimate   =    -606.09601105 Ry
     estimated scf accuracy    <       0.00002846 Ry

     iteration #  5     ecut=   100.00 Ry     beta= 0.70
     Davidson diagonalization with overlap
     ethr =  4.45E-08,  avg # of iterations =  3.0

     total cpu time spent up to now is       12.2 secs

     total energy              =    -606.09600881 Ry
     Harris-Foulkes estimate   =    -606.09601050 Ry
     estimated scf accuracy    <       0.00000418 Ry

     iteration #  6     ecut=   100.00 Ry     beta= 0.70
     Davidson diagonalization with overlap
     ethr =  6.53E-09,  avg # of iterations =  2.0

     total cpu time spent up to now is       14.1 secs

     total energy              =    -606.09600965 Ry
     Harris-Foulkes estimate   =    -606.09600982 Ry
     estimated scf accuracy    <       0.00000056 Ry

     iteration #  7     ecut=   100.00 Ry     beta= 0.70
     Davidson diagonalization with overlap
     ethr =  8.71E-10,  avg # of iterations =  2.0

     total cpu time spent up to now is       15.7 secs

     total energy              =    -606.09600961 Ry
     Harris-Foulkes estimate   =    -606.09600969 Ry
     estimated scf accuracy    <       0.00000016 Ry

     iteration #  8     ecut=   100.00 Ry     beta= 0.70
     Davidson diagonalization with overlap
     ethr =  2.53E-10,  avg # of iterations =  2.0

     total cpu time spent up to now is       17.5 secs

     total energy              =    -606.09600964 Ry
     Harris-Foulkes estimate   =    -606.09600964 Ry
     estimated scf accuracy    <          3.8E-09 Ry

     iteration #  9     ecut=   100.00 Ry     beta= 0.70
     Davidson diagonalization with overlap
     ethr =  6.01E-12,  avg # of iterations =  2.0

     total cpu time spent up to now is       19.5 secs

     total energy              =    -606.09600964 Ry
     Harris-Foulkes estimate   =    -606.09600964 Ry
     estimated scf accuracy    <          3.0E-10 Ry

     iteration # 10     ecut=   100.00 Ry     beta= 0.70
     Davidson diagonalization with overlap
     ethr =  4.76E-13,  avg # of iterations =  2.0

     total cpu time spent up to now is       21.1 secs

     End of self-consistent calculation

          k = 0.0000 0.0000 0.0000 (  8217 PWs)   bands (ev):

   -63.4666 -63.4515 -63.4515 -63.4515 -30.1586 -30.1586 -30.1586 -30.1012
   -30.1012 -30.1012 -30.1012 -30.1012 -30.1012 -30.0643 -30.0643 -30.0643
    -9.1231  -7.4069  -7.4069  -7.4069   4.0030   4.0030   4.0030   6.8806
     6.8806   6.8806   6.8806   6.8806   6.8806   8.3088   8.3088   8.3088

          k = 0.0000 0.0000 0.1250 (  8181 PWs)   bands (ev):

   -63.4660 -63.4521 -63.4515 -63.4515 -30.1564 -30.1564 -30.1555 -30.1034
   -30.1034 -30.1016 -30.1016 -30.0998 -30.0998 -30.0684 -30.0657 -30.0657
    -9.0593  -7.4729  -7.3954  -7.3954   4.0813   4.0813   4.0960   6.7166
     6.7166   6.8069   6.8069   6.9257   6.9257   7.9797   8.2424   8.2424

          k = 0.0000 0.0000 0.2500 (  8165 PWs)   bands (ev):

   -63.4644 -63.4537 -63.4515 -63.4515 -30.1501 -30.1501 -30.1465 -30.1095
   -30.1095 -30.1027 -30.1027 -30.0958 -30.0958 -30.0799 -30.0697 -30.0697
    -8.8768  -7.6610  -7.3674  -7.3674   4.3127   4.3127   4.3797   6.2898
     6.2898   6.6340   6.6340   7.0573   7.0573   7.2188   8.0600   8.0600

          k = 0.0000 0.0000 0.3750 (  8157 PWs)   bands (ev):

   -63.4619 -63.4562 -63.4515 -63.4515 -30.1408 -30.1408 -30.1325 -30.1188
   -30.1188 -30.1037 -30.1037 -30.0964 -30.0897 -30.0897 -30.0756 -30.0756
    -8.6014  -7.9425  -7.3392  -7.3392   4.6854   4.6854   4.8602   5.7359
     5.7359   6.3431   6.4677   6.4677   7.2637   7.2637   7.8037   7.8037

          k = 0.0000 0.0000-0.5000 (  8136 PWs)   bands (ev):

   -63.4591 -63.4591 -63.4515 -63.4515 -30.1298 -30.1298 -30.1298 -30.1298
   -30.1150 -30.1150 -30.1041 -30.1041 -30.0827 -30.0827 -30.0827 -30.0827
    -8.2733  -8.2733  -7.3274  -7.3274   5.1749   5.1749   5.1749   5.1749
     5.5279   5.5279   6.4006   6.4006   7.5235   7.5235   7.5235   7.5235

          k = 0.0000 0.1250 0.1250 (  8175 PWs)   bands (ev):

   -63.4655 -63.4521 -63.4521 -63.4516 -30.1542 -30.1539 -30.1539 -30.1086
   -30.1019 -30.1019 -30.0999 -30.0999 -30.0987 -30.0747 -30.0671 -30.0647
    -8.9968  -7.4583  -7.4583  -7.3864   4.1575   4.1575   4.1590   6.3893
     6.7646   6.7646   6.8644   6.8644   6.9344   7.6300   8.1712   8.2569

          k = 0.0000 0.1250 0.2500 (  8175 PWs)   bands (ev):

   -63.4639 -63.4537 -63.4520 -63.4516 -30.1493 -30.1481 -30.1465 -30.1164
   -30.1080 -30.1000 -30.0978 -30.0974 -30.0950 -30.0870 -30.0712 -30.0670
    -8.8180  -7.6383  -7.4215  -7.3661   4.3370   4.3887   4.3958   5.9147
     6.3446   6.7285   6.8945   6.9048   6.9300   7.0278   7.9756   8.1204

          k = 0.0000 0.1250 0.3750 (  8164 PWs)   bands (ev):

   -63.4615 -63.4560 -63.4519 -63.4517 -30.1424 -30.1388 -30.1347 -30.1251
   -30.1172 -30.1027 -30.0997 -30.0978 -30.0917 -30.0880 -30.0773 -30.0726
    -8.5488  -7.9092  -7.3800  -7.3498   4.6206   4.7583   4.8122   5.4291
     5.7981   6.1390   6.6218   6.7470   7.1248   7.2727   7.7013   7.8668

          k = 0.0000 0.1250-0.5000 (  8130 PWs)   bands (ev):

   -63.4588 -63.4588 -63.4518 -63.4518 -30.1341 -30.1341 -30.1280 -30.1280
   -30.1194 -30.1194 -30.0989 -30.0989 -30.0845 -30.0845 -30.0800 -30.0800
    -8.2294  -8.2294  -7.3529  -7.3529   4.9900   4.9900   5.2433   5.2433
     5.4054   5.4054   6.6268   6.6268   7.4020   7.4020   7.5663   7.5663

          k = 0.0000 0.2500 0.2500 (  8174 PWs)   bands (ev):

   -63.4625 -63.4534 -63.4534 -63.4518 -30.1461 -30.1461 -30.1421 -30.1259
   -30.1037 -30.1037 -30.1002 -30.0932 -30.0932 -30.0921 -30.0755 -30.0661
    -8.6504  -7.5779  -7.5779  -7.3678   4.4439   4.4439   4.6130   5.4119
     6.3334   6.5050   6.5050   6.9766   6.9766   7.0888   7.7451   8.1065

          k = 0.0000 0.2500 0.3750 (  8179 PWs)   bands (ev):

   -63.4604 -63.4555 -63.4530 -63.4522 -30.1445 -30.1393 -30.1344 -30.1333
   -30.1150 -30.1125 -30.0972 -30.0909 -30.0895 -30.0843 -30.0819 -30.0692
    -8.4001  -7.8177  -7.5007  -7.3860   4.5346   4.6933   4.9732   4.9917
     5.6850   5.9805   6.7573   6.9722   7.1084   7.3053   7.4242   7.9325

          k = 0.0000 0.2500-0.5000 (  8152 PWs)   bands (ev):

   -63.4579 -63.4579 -63.4526 -63.4526 -30.1407 -30.1407 -30.1287 -30.1287
   -30.1228 -30.1228 -30.0895 -30.0895 -30.0894 -30.0894 -30.0757 -30.0757
    -8.1069  -8.1069  -7.4310  -7.4310   4.7030   4.7030   5.1144   5.1144
     5.4443   5.4443   7.0351   7.0351   7.0768   7.0768   7.6446   7.6446

          k = 0.0000 0.3750 0.3750 (  8152 PWs)   bands (ev):

   -63.4587 -63.4547 -63.4547 -63.4529 -30.1433 -30.1433 -30.1412 -30.1275
   -30.1250 -30.1054 -30.1054 -30.0889 -30.0836 -30.0814 -30.0814 -30.0695
    -8.1814  -7.6919  -7.6919  -7.4563   4.5748   4.5748   4.6797   5.1947
     5.3172   6.2692   6.2692   7.0438   7.3224   7.3562   7.3562   7.8762

          k = 0.0000 0.3750-0.5000 (  8156 PWs)   bands (ev):

   -63.4567 -63.4567 -63.4538 -63.4538 -30.1443 -30.1443 -30.1375 -30.1375
   -30.1152 -30.1152 -30.0971 -30.0971 -30.0809 -30.0809 -30.0738 -30.0738
    -7.9311  -7.9311  -7.5626  -7.5626   4.5470   4.5470   4.8002   4.8002
     5.7644   5.7644   6.6379   6.6379   7.3848   7.3848   7.6756   7.6756

          k = 0.0000-0.5000-0.5000 (  8116 PWs)   bands (ev):

   -63.4553 -63.4553 -63.4553 -63.4553 -30.1432 -30.1432 -30.1432 -30.1432
   -30.1061 -30.1061 -30.1061 -30.1061 -30.0755 -30.0755 -30.0755 -30.0755
    -7.7377  -7.7377  -7.7377  -7.7377   4.5856   4.5856   4.5856   4.5856
     6.1773   6.1773   6.1773   6.1773   7.5999   7.5999   7.5999   7.5999

          k = 0.1250 0.1250 0.1250 (  8181 PWs)   bands (ev):

   -63.4649 -63.4521 -63.4521 -63.4521 -30.1525 -30.1525 -30.1525 -30.1062
   -30.1062 -30.1062 -30.0974 -30.0974 -30.0974 -30.0810 -30.0660 -30.0660
    -8.9355  -7.4462  -7.4462  -7.4462   4.2135   4.2135   4.2135   6.4721
     6.4721   6.4721   6.9767   6.9767   6.9767   7.3030   8.1963   8.1963

          k = 0.1250 0.1250 0.2500 (  8178 PWs)   bands (ev):

   -63.4634 -63.4536 -63.4521 -63.4521 -30.1486 -30.1486 -30.1470 -30.1125
   -30.1125 -30.0997 -30.0959 -30.0959 -30.0937 -30.0937 -30.0696 -30.0675
    -8.7605  -7.6179  -7.4168  -7.4168   4.3710   4.3710   4.3956   6.0515
     6.0515   6.6428   6.7012   6.9453   6.9453   7.0999   8.0294   8.0736

          k = 0.1250 0.1250 0.3750 (  8161 PWs)   bands (ev):

   -63.4612 -63.4558 -63.4521 -63.4521 -30.1437 -30.1437 -30.1375 -30.1187
   -30.1187 -30.1091 -30.0956 -30.0956 -30.0908 -30.0881 -30.0751 -30.0730
    -8.4977  -7.8779  -7.3872  -7.3872   4.5881   4.5881   4.7390   5.6614
     5.6614   5.9154   6.8317   6.8317   7.0321   7.2926   7.7844   7.7936

          k = 0.1250 0.1250-0.5000 (  8140 PWs)   bands (ev):

   -63.4585 -63.4585 -63.4521 -63.4521 -30.1409 -30.1409 -30.1244 -30.1244
   -30.1218 -30.1218 -30.0956 -30.0956 -30.0816 -30.0816 -30.0812 -30.0812
    -8.1873  -8.1873  -7.3749  -7.3749   4.7228   4.7228   5.2554   5.2554
     5.4695   5.4695   6.7725   6.7725   7.4127   7.4127   7.5342   7.5342

          k = 0.1250 0.2500 0.2500 (  8177 PWs)   bands (ev):

   -63.4621 -63.4534 -63.4534 -63.4522 -30.1481 -30.1481 -30.1474 -30.1175
   -30.1071 -30.1037 -30.1037 -30.0915 -30.0915 -30.0911 -30.0726 -30.0671
    -8.5971  -7.5646  -7.5646  -7.4093   4.3921   4.3921   4.4408   5.7076
     6.0549   6.3861   6.3861   7.0937   7.0937   7.1225   7.8575   8.0618

          k = 0.1250 0.2500 0.3750 (  8175 PWs)   bands (ev):

   -63.4601 -63.4554 -63.4531 -63.4525 -30.1488 -30.1474 -30.1437 -30.1217
   -30.1181 -30.1089 -30.0940 -30.0894 -30.0885 -30.0846 -30.0782 -30.0700
    -8.3538  -7.7928  -7.4986  -7.4139   4.3913   4.4606   4.5584   5.4348
     5.6000   6.0591   6.7987   7.0640   7.1450   7.3263   7.5699   7.8907

          k = 0.1250 0.2500-0.5000 (  8146 PWs)   bands (ev):

   -63.4577 -63.4577 -63.4528 -63.4528 -30.1484 -30.1484 -30.1346 -30.1346
   -30.1144 -30.1144 -30.0882 -30.0882 -30.0855 -30.0855 -30.0765 -30.0765
    -8.0703  -8.0703  -7.4434  -7.4434   4.4178   4.4178   4.9125   4.9125
     5.7631   5.7631   7.0915   7.0915   7.2084   7.2084   7.6133   7.6133

          k = 0.1250 0.3750 0.3750 (  8160 PWs)   bands (ev):

   -63.4585 -63.4547 -63.4547 -63.4532 -30.1511 -30.1493 -30.1493 -30.1346
   -30.1135 -30.0999 -30.0999 -30.0842 -30.0830 -30.0813 -30.0813 -30.0700
    -8.1430  -7.6774  -7.6774  -7.4704   4.3079   4.3666   4.3666   4.9364
     5.7763   6.4649   6.4649   7.2464   7.3417   7.3734   7.3734   7.8533

          k = 0.1250 0.3750-0.5000 (  8152 PWs)   bands (ev):

   -63.4566 -63.4566 -63.4539 -63.4539 -30.1521 -30.1521 -30.1444 -30.1444
   -30.1069 -30.1069 -30.0916 -30.0916 -30.0805 -30.0805 -30.0741 -30.0741
    -7.9036  -7.9036  -7.5616  -7.5616   4.2649   4.2649   4.5558   4.5558
     6.0963   6.0963   6.8655   6.8655   7.4003   7.4003   7.6638   7.6638

          k = 0.1250-0.5000-0.5000 (  8136 PWs)   bands (ev):

   -63.4553 -63.4553 -63.4553 -63.4553 -30.1507 -30.1507 -30.1507 -30.1507
   -30.0990 -30.0990 -30.0990 -30.0990 -30.0754 -30.0754 -30.0754 -30.0754
    -7.7226  -7.7226  -7.7226  -7.7226   4.3157   4.3157   4.3157   4.3157
     6.4750   6.4750   6.4750   6.4750   7.5996   7.5996   7.5996   7.5996

          k = 0.2500 0.2500 0.2500 (  8165 PWs)   bands (ev):

   -63.4609 -63.4534 -63.4534 -63.4534 -30.1526 -30.1526 -30.1526 -30.1209
   -30.1034 -30.1034 -30.1034 -30.0883 -30.0883 -30.0883 -30.0699 -30.0699
    -8.4462  -7.5320  -7.5320  -7.5320   4.2553   4.2553   4.2553   5.4921
     6.2616   6.2616   6.2616   7.2203   7.2203   7.2203   7.9376   7.9376

          k = 0.2500 0.2500 0.3750 (  8138 PWs)   bands (ev):

   -63.4592 -63.4551 -63.4534 -63.4534 -30.1567 -30.1567 -30.1525 -30.1351
   -30.1029 -30.1029 -30.0896 -30.0856 -30.0856 -30.0840 -30.0741 -30.0717
    -8.2241  -7.7266  -7.4991  -7.4991   4.1074   4.1074   4.2601   4.9264
     6.2368   6.2368   6.8524   7.2520   7.2520   7.3722   7.7595   7.7774

          k = 0.2500 0.2500-0.5000 (  8144 PWs)   bands (ev):

   -63.4571 -63.4571 -63.4534 -63.4534 -30.1583 -30.1583 -30.1463 -30.1463
   -30.1026 -30.1026 -30.0846 -30.0846 -30.0790 -30.0790 -30.0785 -30.0785
    -7.9697  -7.9697  -7.4853  -7.4853   4.0443   4.0443   4.4919   4.4919
     6.2457   6.2457   7.2461   7.2461   7.3871   7.3871   7.5605   7.5605

          k = 0.2500 0.3750 0.3750 (  8156 PWs)   bands (ev):

   -63.4579 -63.4547 -63.4547 -63.4538 -30.1625 -30.1601 -30.1601 -30.1481
   -30.0977 -30.0905 -30.0905 -30.0815 -30.0808 -30.0808 -30.0770 -30.0715
    -8.0373  -7.6418  -7.6418  -7.5174   3.8869   3.9782   3.9782   4.4340
     6.4544   6.8169   6.8169   7.3975   7.4206   7.4206   7.5675   7.7888

          k = 0.2500 0.3750-0.5000 (  8156 PWs)   bands (ev):

   -63.4563 -63.4563 -63.4542 -63.4542 -30.1639 -30.1639 -30.1571 -30.1571
   -30.0936 -30.0936 -30.0824 -30.0824 -30.0795 -30.0795 -30.0749 -30.0749
    -7.8304  -7.8304  -7.5657  -7.5657   3.8365   3.8365   4.0946   4.0946
     6.6678   6.6678   7.2668   7.2668   7.4454   7.4454   7.6287   7.6287

          k = 0.2500-0.5000-0.5000 (  8140 PWs)   bands (ev):

   -63.4553 -63.4553 -63.4553 -63.4553 -30.1634 -30.1634 -30.1634 -30.1634
   -30.0872 -30.0872 -30.0872 -30.0872 -30.0754 -30.0754 -30.0754 -30.0754
    -7.6858  -7.6858  -7.6858  -7.6858   3.8550   3.8550   3.8550   3.8550
     7.0077   7.0077   7.0077   7.0077   7.5990   7.5990   7.5990   7.5990

          k = 0.3750 0.3750 0.3750 (  8156 PWs)   bands (ev):

   -63.4569 -63.4547 -63.4547 -63.4547 -30.1686 -30.1686 -30.1686 -30.1604
   -30.0846 -30.0846 -30.0846 -30.0791 -30.0791 -30.0791 -30.0738 -30.0738
    -7.8899  -7.6057  -7.6057  -7.6057   3.6695   3.6695   3.6695   3.9783
     7.0734   7.0734   7.0734   7.4830   7.4830   7.4830   7.6947   7.6947

          k = 0.3750 0.3750-0.5000 (  8152 PWs)   bands (ev):

   -63.4558 -63.4558 -63.4547 -63.4547 -30.1717 -30.1717 -30.1678 -30.1678
   -30.0834 -30.0834 -30.0777 -30.0777 -30.0764 -30.0764 -30.0763 -30.0763
    -7.7356  -7.7356  -7.5907  -7.5907   3.5554   3.5554   3.7030   3.7030
     7.1576   7.1576   7.5170   7.5170   7.5195   7.5195   7.5871   7.5871

          k = 0.3750-0.5000-0.5000 (  8164 PWs)   bands (ev):

   -63.4552 -63.4552 -63.4552 -63.4552 -30.1731 -30.1731 -30.1731 -30.1731
   -30.0785 -30.0785 -30.0785 -30.0785 -30.0754 -30.0754 -30.0754 -30.0754
    -7.6485  -7.6485  -7.6485  -7.6485   3.5071   3.5071   3.5071   3.5071
     7.4359   7.4359   7.4359   7.4359   7.5984   7.5984   7.5984   7.5984

          k =-0.5000-0.5000-0.5000 (  8144 PWs)   bands (ev):

   -63.4552 -63.4552 -63.4552 -63.4552 -30.1766 -30.1766 -30.1766 -30.1766
   -30.0754 -30.0754 -30.0754 -30.0754 -30.0754 -30.0754 -30.0754 -30.0754
    -7.6329  -7.6329  -7.6329  -7.6329   3.3809   3.3809   3.3809   3.3809
     7.5982   7.5982   7.5982   7.5982   7.5982   7.5982   7.5982   7.5982

     highest occupied level (ev):     8.3088

!    total energy              =    -606.09600964 Ry
     Harris-Foulkes estimate   =    -606.09600964 Ry
     estimated scf accuracy    <          1.5E-11 Ry

     The total energy is the sum of the following terms:

     one-electron contribution =    -287.84887276 Ry
     hartree contribution      =     161.63512253 Ry
     xc contribution           =     -95.41584630 Ry
     ewald contribution        =    -384.46641311 Ry

     convergence has been achieved in  10 iterations

     Forces acting on atoms (cartesian axes, Ry/au):

     atom    1 type  1   force =     0.00000000    0.00000000    0.00000000
     atom    2 type  1   force =     0.00000000    0.00000000    0.00000000
     atom    3 type  1   force =     0.00000000    0.00000000   -0.00000000
     atom    4 type  1   force =     0.00000000    0.00000000   -0.00000000
     atom    5 type  2   force =     0.00000000    0.00000000    0.00000000
     atom    6 type  2   force =     0.00000000    0.00000000    0.00000000
     atom    7 type  2   force =     0.00000000    0.00000000    0.00000000
     atom    8 type  2   force =     0.00000000    0.00000000    0.00000000

     Total force =     0.000000     Total SCF correction =     0.000000


     Computing stress (Cartesian axis) and pressure

          total   stress  (Ry/bohr**3)                   (kbar)     P=   24.02
   0.00016325   0.00000000   0.00000000         24.02      0.00      0.00
   0.00000000   0.00016325   0.00000000          0.00     24.02      0.00
   0.00000000   0.00000000   0.00016325          0.00      0.00     24.02


     BFGS Geometry Optimization

     number of scf cycles    =   1
     number of bfgs steps    =   0

     enthalpy new            =    -606.0960096367 Ry

     new trust radius        =       0.0179453930 bohr
     new conv_thr            =            1.0E-10 Ry

     new unit-cell volume =    489.28236 a.u.^3 (    72.50416 Ang^3 )
     density =      3.69191 g/cm^3

CELL_PARAMETERS (angstrom)
   4.169855304   0.000000000   0.000000000
   0.000000000   4.169855304   0.000000000
   0.000000000   0.000000000   4.169855304

ATOMIC_POSITIONS (crystal)
Mg       0.000000000   0.000000000   0.000000000
Mg       0.500000000   0.500000000   0.000000000
Mg       0.500000000   0.000000000   0.500000000
Mg       0.000000000   0.500000000   0.500000000
O        0.500000000   0.000000000   0.000000000
O        0.000000000   0.500000000   0.000000000
O        0.000000000   0.000000000   0.500000000
O        0.500000000   0.500000000   0.500000000



     Writing output data file MgO.save/
     NEW-OLD atomic charge density approx. for the potential
     extrapolated charge   64.77721, renormalised to   64.00000

     total cpu time spent up to now is       23.8 secs

     Self-consistent Calculation

     iteration #  1     ecut=   100.00 Ry     beta= 0.70
     Davidson diagonalization with overlap
     ethr =  1.00E-06,  avg # of iterations =  3.0

     total cpu time spent up to now is       26.4 secs

     total energy              =    -606.07502639 Ry
     Harris-Foulkes estimate   =    -603.59250520 Ry
     estimated scf accuracy    <       0.01161914 Ry

     iteration #  2     ecut=   100.00 Ry     beta= 0.70
     Davidson diagonalization with overlap
     ethr =  1.82E-05,  avg # of iterations =  3.0

     total cpu time spent up to now is       29.0 secs

     total energy              =    -606.09560486 Ry
     Harris-Foulkes estimate   =    -606.10725824 Ry
     estimated scf accuracy    <       0.03109462 Ry

     iteration #  3     ecut=   100.00 Ry     beta= 0.70
     Davidson diagonalization with overlap
     ethr =  1.82E-05,  avg # of iterations =  2.0

     total cpu time spent up to now is       30.7 secs

     total energy              =    -606.09730912 Ry
     Harris-Foulkes estimate   =    -606.09833030 Ry
     estimated scf accuracy    <       0.00410979 Ry

     iteration #  4     ecut=   100.00 Ry     beta= 0.70
     Davidson diagonalization with overlap
     ethr =  6.42E-06,  avg # of iterations =  1.0

     total cpu time spent up to now is       32.1 secs

     total energy              =    -606.09630833 Ry
     Harris-Foulkes estimate   =    -606.09739363 Ry
     estimated scf accuracy    <       0.00218373 Ry

     iteration #  5     ecut=   100.00 Ry     beta= 0.70
     Davidson diagonalization with overlap
     ethr =  3.41E-06,  avg # of iterations =  2.0

     total cpu time spent up to now is       33.8 secs

     total energy              =    -606.09654160 Ry
     Harris-Foulkes estimate   =    -606.09658633 Ry
     estimated scf accuracy    <       0.00007391 Ry

     iteration #  6     ecut=   100.00 Ry     beta= 0.70
     Davidson diagonalization with overlap
     ethr =  1.15E-07,  avg # of iterations =  2.0

     total cpu time spent up to now is       35.7 secs

     total energy              =    -606.09656043 Ry
     Harris-Foulkes estimate   =    -606.09655787 Ry
     estimated scf accuracy    <       0.00000031 Ry

     iteration #  7     ecut=   100.00 Ry     beta= 0.70
     Davidson diagonalization with overlap
     ethr =  4.87E-10,  avg # of iterations =  3.0

     total cpu time spent up to now is       38.4 secs

     total energy              =    -606.09655548 Ry
     Harris-Foulkes estimate   =    -606.09656233 Ry
     estimated scf accuracy    <       0.00001270 Ry

     iteration #  8     ecut=   100.00 Ry     beta= 0.70
     Davidson diagonalization with overlap
     ethr =  4.87E-10,  avg # of iterations =  3.0

     total cpu time spent up to now is       41.1 secs

     total energy              =    -606.09655777 Ry
     Harris-Foulkes estimate   =    -606.09655778 Ry
     estimated scf accuracy    <       0.00000002 Ry

     iteration #  9     ecut=   100.00 Ry     beta= 0.70
     Davidson diagonalization with overlap
     ethr =  3.01E-11,  avg # of iterations =  1.0

     total cpu time spent up to now is       42.5 secs

     total energy              =    -606.09655777 Ry
     Harris-Foulkes estimate   =    -606.09655777 Ry
     estimated scf accuracy    <          4.7E-09 Ry

     iteration # 10     ecut=   100.00 Ry     beta= 0.70
     Davidson diagonalization with overlap
     ethr =  7.38E-12,  avg # of iterations =  2.0

     total cpu time spent up to now is       44.2 secs

     total energy              =    -606.09655777 Ry
     Harris-Foulkes estimate   =    -606.09655777 Ry
     estimated scf accuracy    <          2.2E-10 Ry

     iteration # 11     ecut=   100.00 Ry     beta= 0.70
     Davidson diagonalization with overlap
     ethr =  3.49E-13,  avg # of iterations =  2.0

     total cpu time spent up to now is       45.8 secs

     total energy              =    -606.09655777 Ry
     Harris-Foulkes estimate   =    -606.09655777 Ry
     estimated scf accuracy    <          2.5E-10 Ry

     iteration # 12     ecut=   100.00 Ry     beta= 0.70
     Davidson diagonalization with overlap
     ethr =  3.49E-13,  avg # of iterations =  1.0

     total cpu time spent up to now is       47.1 secs

     total energy              =    -606.09655777 Ry
     Harris-Foulkes estimate   =    -606.09655777 Ry
     estimated scf accuracy    <          1.7E-10 Ry

     iteration # 13     ecut=   100.00 Ry     beta= 0.70
     Davidson diagonalization with overlap
     ethr =  2.69E-13,  avg # of iterations =  1.0

     total cpu time spent up to now is       48.4 secs

     End of self-consistent calculation

          k = 0.0000 0.0000 0.0000 (  8217 PWs)   bands (ev):

   -63.6622 -63.6480 -63.6480 -63.6480 -30.3491 -30.3491 -30.3491 -30.2944
   -30.2944 -30.2944 -30.2944 -30.2944 -30.2944 -30.2592 -30.2592 -30.2592
    -9.2154  -7.5367  -7.5367  -7.5367   3.8963   3.8963   3.8963   6.7406
     6.7406   6.7406   6.7406   6.7406   6.7406   8.1514   8.1514   8.1514

          k = 0.0000 0.0000 0.1245 (  8181 PWs)   bands (ev):

   -63.6617 -63.6486 -63.6480 -63.6480 -30.3470 -30.3470 -30.3461 -30.2965
   -30.2965 -30.2948 -30.2948 -30.2931 -30.2931 -30.2631 -30.2605 -30.2605
    -9.1529  -7.6012  -7.5256  -7.5256   3.9739   3.9739   3.9875   6.5791
     6.5791   6.6678   6.6678   6.7853   6.7853   7.8226   8.0860   8.0860

          k = 0.0000 0.0000 0.2490 (  8165 PWs)   bands (ev):

   -63.6601 -63.6501 -63.6480 -63.6480 -30.3410 -30.3410 -30.3375 -30.3024
   -30.3024 -30.2958 -30.2958 -30.2892 -30.2892 -30.2740 -30.2643 -30.2643
    -8.9743  -7.7851  -7.4987  -7.4987   4.2033   4.2033   4.2658   6.1585
     6.1585   6.4971   6.4971   6.9155   6.9155   7.0661   7.9062   7.9062

          k = 0.0000 0.0000 0.3735 (  8157 PWs)   bands (ev):

   -63.6578 -63.6524 -63.6480 -63.6480 -30.3321 -30.3321 -30.3241 -30.3112
   -30.3112 -30.2967 -30.2967 -30.2898 -30.2835 -30.2835 -30.2700 -30.2700
    -8.7048  -8.0604  -7.4716  -7.4716   4.5725   4.5725   4.7378   5.6116
     5.6116   6.1993   6.3329   6.3329   7.1197   7.1197   7.6533   7.6533

          k = 0.0000 0.0000-0.4980 (  8136 PWs)   bands (ev):

   -63.6551 -63.6551 -63.6480 -63.6480 -30.3216 -30.3216 -30.3216 -30.3216
   -30.3074 -30.3074 -30.2971 -30.2971 -30.2767 -30.2767 -30.2767 -30.2767
    -8.3839  -8.3839  -7.4602  -7.4602   5.0570   5.0570   5.0570   5.0570
     5.3950   5.3950   6.2667   6.2667   7.3766   7.3766   7.3766   7.3766

          k = 0.0000 0.1245 0.1245 (  8175 PWs)   bands (ev):

   -63.6612 -63.6486 -63.6486 -63.6481 -30.3449 -30.3446 -30.3446 -30.3014
   -30.2951 -30.2951 -30.2932 -30.2932 -30.2921 -30.2691 -30.2619 -30.2595
    -9.0917  -7.5871  -7.5871  -7.5170   4.0485   4.0485   4.0510   6.2556
     6.6267   6.6267   6.7248   6.7248   6.7945   7.4745   8.0158   8.1009

          k = 0.0000 0.1245 0.2490 (  8175 PWs)   bands (ev):

   -63.6597 -63.6500 -63.6485 -63.6481 -30.3402 -30.3390 -30.3375 -30.3088
   -30.3009 -30.2933 -30.2912 -30.2908 -30.2885 -30.2808 -30.2658 -30.2618
    -8.9168  -7.7631  -7.5516  -7.4976   4.2265   4.2786   4.2817   5.7869
     6.2127   6.5909   6.7557   6.7654   6.7797   6.8867   7.8231   7.9668

          k = 0.0000 0.1245 0.3735 (  8164 PWs)   bands (ev):

   -63.6575 -63.6522 -63.6484 -63.6482 -30.3337 -30.3303 -30.3262 -30.3172
   -30.3096 -30.2957 -30.2930 -30.2911 -30.2853 -30.2818 -30.2716 -30.2671
    -8.6534  -8.0279  -7.5115  -7.4821   4.5074   4.6447   4.6903   5.3073
     5.6732   5.9973   6.4860   6.6103   6.9830   7.1293   7.5526   7.7166

          k = 0.0000 0.1245-0.4980 (  8130 PWs)   bands (ev):

   -63.6548 -63.6548 -63.6483 -63.6483 -30.3257 -30.3257 -30.3199 -30.3199
   -30.3117 -30.3117 -30.2922 -30.2922 -30.2784 -30.2784 -30.2742 -30.2742
    -8.3411  -8.3411  -7.4853  -7.4853   4.8731   4.8731   5.1247   5.1247
     5.2737   5.2737   6.4914   6.4914   7.2570   7.2570   7.4197   7.4197

          k = 0.0000 0.2490 0.2490 (  8174 PWs)   bands (ev):

   -63.6584 -63.6498 -63.6498 -63.6483 -30.3371 -30.3371 -30.3334 -30.3178
   -30.2968 -30.2968 -30.2934 -30.2867 -30.2867 -30.2858 -30.2699 -30.2609
    -8.7529  -7.7046  -7.7046  -7.4997   4.3297   4.3297   4.5009   5.2895
     6.1889   6.3714   6.3714   6.8372   6.8372   6.9487   7.5961   7.9544

          k = 0.0000 0.2490 0.3735 (  8179 PWs)   bands (ev):

   -63.6564 -63.6518 -63.6495 -63.6487 -30.3355 -30.3306 -30.3259 -30.3250
   -30.3074 -30.3051 -30.2906 -30.2846 -30.2833 -30.2783 -30.2760 -30.2639
    -8.5083  -7.9390  -7.6296  -7.5178   4.4202   4.5732   4.8576   4.8737
     5.5484   5.8537   6.6210   6.8339   6.9688   7.1630   7.2796   7.7833

          k = 0.0000 0.2490-0.4980 (  8152 PWs)   bands (ev):

   -63.6541 -63.6541 -63.6491 -63.6491 -30.3319 -30.3319 -30.3204 -30.3204
   -30.3150 -30.3150 -30.2833 -30.2833 -30.2831 -30.2831 -30.2701 -30.2701
    -8.2216  -8.2216  -7.5619  -7.5619   4.5875   4.5875   4.9864   4.9864
     5.3237   5.3237   6.8966   6.8966   6.9367   6.9367   7.4989   7.4989

          k = 0.0000 0.3735 0.3735 (  8152 PWs)   bands (ev):

   -63.6548 -63.6510 -63.6510 -63.6494 -30.3344 -30.3344 -30.3324 -30.3193
   -30.3170 -30.2984 -30.2984 -30.2827 -30.2776 -30.2756 -30.2756 -30.2642
    -8.2947  -7.8166  -7.8166  -7.5868   4.4571   4.4571   4.5640   5.0649
     5.1982   6.1393   6.1393   6.9045   7.1814   7.2146   7.2146   7.7288

          k = 0.0000 0.3735-0.4980 (  8156 PWs)   bands (ev):

   -63.6529 -63.6529 -63.6502 -63.6502 -30.3353 -30.3353 -30.3289 -30.3289
   -30.3077 -30.3077 -30.2905 -30.2905 -30.2751 -30.2751 -30.2683 -30.2683
    -8.0502  -8.0502  -7.6906  -7.6906   4.4312   4.4312   4.6771   4.6771
     5.6406   5.6406   6.5038   6.5038   7.2434   7.2434   7.5308   7.5308

          k = 0.0000-0.4980-0.4980 (  8116 PWs)   bands (ev):

   -63.6516 -63.6516 -63.6516 -63.6516 -30.3343 -30.3343 -30.3343 -30.3343
   -30.2991 -30.2991 -30.2991 -30.2991 -30.2699 -30.2699 -30.2699 -30.2699
    -7.8616  -7.8616  -7.8616  -7.8616   4.4670   4.4670   4.4670   4.4670
     6.0488   6.0488   6.0488   6.0488   7.4565   7.4565   7.4565   7.4565

          k = 0.1245 0.1245 0.1245 (  8181 PWs)   bands (ev):

   -63.6607 -63.6486 -63.6486 -63.6486 -30.3432 -30.3432 -30.3432 -30.2992
   -30.2992 -30.2992 -30.2908 -30.2908 -30.2908 -30.2751 -30.2608 -30.2608
    -9.0318  -7.5755  -7.5755  -7.5755   4.1040   4.1040   4.1040   6.3377
     6.3377   6.3377   6.8363   6.8363   6.8363   7.1498   8.0413   8.0413

          k = 0.1245 0.1245 0.2490 (  8178 PWs)   bands (ev):

   -63.6592 -63.6500 -63.6486 -63.6486 -30.3396 -30.3396 -30.3380 -30.3052
   -30.3052 -30.2930 -30.2894 -30.2894 -30.2873 -30.2872 -30.2643 -30.2623
    -8.8606  -7.7433  -7.5472  -7.5472   4.2601   4.2601   4.2817   5.9227
     5.9227   6.4954   6.5648   6.8060   6.8060   6.9583   7.8767   7.9209

          k = 0.1245 0.1245 0.3735 (  8161 PWs)   bands (ev):

   -63.6571 -63.6521 -63.6485 -63.6485 -30.3348 -30.3348 -30.3289 -30.3111
   -30.3111 -30.3018 -30.2891 -30.2891 -30.2844 -30.2820 -30.2695 -30.2675
    -8.6036  -7.9975  -7.5188  -7.5188   4.4753   4.4753   4.6181   5.5377
     5.5377   5.7763   6.6943   6.6943   6.8924   7.1490   7.6359   7.6440

          k = 0.1245 0.1245-0.4980 (  8140 PWs)   bands (ev):

   -63.6546 -63.6546 -63.6485 -63.6485 -30.3322 -30.3322 -30.3164 -30.3164
   -30.3141 -30.3141 -30.2891 -30.2891 -30.2757 -30.2757 -30.2754 -30.2754
    -8.3001  -8.3001  -7.5069  -7.5069   4.6086   4.6086   5.1257   5.1257
     5.3484   5.3484   6.6360   6.6360   7.2687   7.2687   7.3879   7.3879

          k = 0.1245 0.2490 0.2490 (  8177 PWs)   bands (ev):

   -63.6580 -63.6498 -63.6498 -63.6487 -30.3390 -30.3390 -30.3384 -30.3099
   -30.2999 -30.2968 -30.2968 -30.2852 -30.2852 -30.2848 -30.2671 -30.2619
    -8.7009  -7.6917  -7.6917  -7.5404   4.2787   4.2787   4.3293   5.5830
     5.9140   6.2543   6.2543   6.9530   6.9530   6.9821   7.7075   7.9104

          k = 0.1245 0.2490 0.3735 (  8175 PWs)   bands (ev):

   -63.6561 -63.6517 -63.6495 -63.6490 -30.3397 -30.3383 -30.3348 -30.3138
   -30.3105 -30.3018 -30.2875 -30.2832 -30.2823 -30.2786 -30.2725 -30.2647
    -8.4631  -7.9148  -7.6278  -7.5452   4.2787   4.3488   4.4402   5.3017
     5.4771   5.9316   6.6625   6.9248   7.0052   7.1836   7.4239   7.7420

          k = 0.1245 0.2490-0.4980 (  8146 PWs)   bands (ev):

   -63.6539 -63.6539 -63.6492 -63.6492 -30.3393 -30.3393 -30.3261 -30.3261
   -30.3070 -30.3070 -30.2820 -30.2820 -30.2794 -30.2794 -30.2709 -30.2709
    -8.1860  -8.1860  -7.5742  -7.5742   4.3059   4.3059   4.7875   4.7875
     5.6389   5.6389   6.9525   6.9525   7.0673   7.0673   7.4678   7.4678

          k = 0.1245 0.3735 0.3735 (  8160 PWs)   bands (ev):

   -63.6546 -63.6510 -63.6510 -63.6496 -30.3419 -30.3401 -30.3401 -30.3260
   -30.3062 -30.2931 -30.2931 -30.2782 -30.2771 -30.2754 -30.2754 -30.2647
    -8.2573  -7.8026  -7.8026  -7.6008   4.1970   4.2519   4.2519   4.8105
     5.6518   6.3329   6.3329   7.1048   7.2006   7.2316   7.2316   7.7062

          k = 0.1245 0.3735-0.4980 (  8152 PWs)   bands (ev):

   -63.6528 -63.6528 -63.6503 -63.6503 -30.3428 -30.3428 -30.3354 -30.3354
   -30.2998 -30.2998 -30.2852 -30.2852 -30.2747 -30.2747 -30.2686 -30.2686
    -8.0236  -8.0236  -7.6899  -7.6899   4.1531   4.1531   4.4364   4.4364
     5.9684   5.9684   6.7287   6.7287   7.2588   7.2588   7.5192   7.5192

          k = 0.1245-0.4980-0.4980 (  8136 PWs)   bands (ev):

   -63.6515 -63.6515 -63.6515 -63.6515 -30.3414 -30.3414 -30.3414 -30.3414
   -30.2923 -30.2923 -30.2923 -30.2923 -30.2699 -30.2699 -30.2699 -30.2699
    -7.8471  -7.8471  -7.8471  -7.8471   4.2012   4.2012   4.2012   4.2012
     6.3428   6.3428   6.3428   6.3428   7.4563   7.4563   7.4563   7.4563

          k = 0.2490 0.2490 0.2490 (  8165 PWs)   bands (ev):

   -63.6569 -63.6498 -63.6498 -63.6498 -30.3433 -30.3433 -30.3433 -30.3130
   -30.2965 -30.2965 -30.2965 -30.2821 -30.2821 -30.2821 -30.2645 -30.2645
    -8.5536  -7.6604  -7.6604  -7.6604   4.1439   4.1439   4.1439   5.3583
     6.1318   6.1318   6.1318   7.0790   7.0790   7.0790   7.7879   7.7879

          k = 0.2490 0.2490 0.3735 (  8138 PWs)   bands (ev):

   -63.6552 -63.6514 -63.6498 -63.6498 -30.3472 -30.3472 -30.3431 -30.3265
   -30.2960 -30.2960 -30.2834 -30.2796 -30.2796 -30.2780 -30.2685 -30.2663
    -8.3367  -7.8507  -7.6288  -7.6288   3.9985   3.9985   4.1464   4.8004
     6.1076   6.1076   6.7166   7.1112   7.1112   7.2294   7.6121   7.6307

          k = 0.2490 0.2490-0.4980 (  8144 PWs)   bands (ev):

   -63.6533 -63.6533 -63.6498 -63.6498 -30.3487 -30.3487 -30.3372 -30.3372
   -30.2958 -30.2958 -30.2786 -30.2786 -30.2733 -30.2733 -30.2728 -30.2728
    -8.0882  -8.0882  -7.6156  -7.6156   3.9364   3.9364   4.3731   4.3731
     6.1163   6.1163   7.1059   7.1059   7.2453   7.2453   7.4155   7.4155

          k = 0.2490 0.3735 0.3735 (  8156 PWs)   bands (ev):

   -63.6540 -63.6510 -63.6510 -63.6501 -30.3527 -30.3504 -30.3504 -30.3389
   -30.2911 -30.2842 -30.2842 -30.2756 -30.2750 -30.2750 -30.2714 -30.2661
    -8.1544  -7.7684  -7.7684  -7.6471   3.7805   3.8691   3.8691   4.3155
     6.3229   6.6816   6.6816   7.2559   7.2784   7.2784   7.4230   7.6428

          k = 0.2490 0.3735-0.4980 (  8156 PWs)   bands (ev):

   -63.6525 -63.6525 -63.6506 -63.6506 -30.3539 -30.3539 -30.3475 -30.3475
   -30.2872 -30.2872 -30.2765 -30.2765 -30.2737 -30.2737 -30.2694 -30.2694
    -7.9526  -7.9526  -7.6944  -7.6944   3.7302   3.7302   3.9821   3.9821
     6.5340   6.5340   7.1261   7.1261   7.3035   7.3035   7.4847   7.4847

          k = 0.2490-0.4980-0.4980 (  8140 PWs)   bands (ev):

   -63.6515 -63.6515 -63.6515 -63.6515 -30.3535 -30.3535 -30.3535 -30.3535
   -30.2811 -30.2811 -30.2811 -30.2811 -30.2699 -30.2699 -30.2699 -30.2699
    -7.8117  -7.8117  -7.8117  -7.8117   3.7470   3.7470   3.7470   3.7470
     6.8701   6.8701   6.8701   6.8701   7.4559   7.4559   7.4559   7.4559

          k = 0.3735 0.3735 0.3735 (  8156 PWs)   bands (ev):

   -63.6531 -63.6510 -63.6510 -63.6510 -30.3584 -30.3584 -30.3584 -30.3506
   -30.2786 -30.2786 -30.2786 -30.2734 -30.2734 -30.2734 -30.2683 -30.2683
    -8.0110  -7.7338  -7.7338  -7.7338   3.5648   3.5648   3.5648   3.8669
     6.9358   6.9358   6.9358   7.3406   7.3406   7.3406   7.5499   7.5499

          k = 0.3735 0.3735-0.4980 (  8152 PWs)   bands (ev):

   -63.6521 -63.6521 -63.6510 -63.6510 -30.3613 -30.3613 -30.3576 -30.3576
   -30.2774 -30.2774 -30.2720 -30.2720 -30.2708 -30.2708 -30.2707 -30.2707
    -7.8606  -7.8606  -7.7193  -7.7193   3.4524   3.4524   3.5965   3.5965
     7.0190   7.0190   7.3747   7.3747   7.3771   7.3771   7.4435   7.4435

          k = 0.3735-0.4980-0.4980 (  8164 PWs)   bands (ev):

   -63.6515 -63.6515 -63.6515 -63.6515 -30.3627 -30.3627 -30.3627 -30.3627
   -30.2728 -30.2728 -30.2728 -30.2728 -30.2698 -30.2698 -30.2698 -30.2698
    -7.7759  -7.7759  -7.7759  -7.7759   3.4041   3.4041   3.4041   3.4041
     7.2944   7.2944   7.2944   7.2944   7.4555   7.4555   7.4555   7.4555

          k =-0.4980-0.4980-0.4980 (  8144 PWs)   bands (ev):

   -63.6515 -63.6515 -63.6515 -63.6515 -30.3660 -30.3660 -30.3660 -30.3660
   -30.2698 -30.2698 -30.2698 -30.2698 -30.2698 -30.2698 -30.2698 -30.2698
    -7.7609  -7.7609  -7.7609  -7.7609   3.2797   3.2797   3.2797   3.2797
     7.4553   7.4553   7.4553   7.4553   7.4553   7.4553   7.4553   7.4553

     highest occupied level (ev):     8.1514

!    total energy              =    -606.09655777 Ry
     Harris-Foulkes estimate   =    -606.09655777 Ry
     estimated scf accuracy    <          1.1E-11 Ry

     The total energy is the sum of the following terms:

     one-electron contribution =    -290.25487229 Ry
     hartree contribution      =     162.42045936 Ry
     xc contribution           =     -95.35846927 Ry
     ewald contribution        =    -382.90367557 Ry

     convergence has been achieved in  13 iterations

     Forces acting on atoms (cartesian axes, Ry/au):

     atom    1 type  1   force =     0.00000000    0.00000000    0.00000000
     atom    2 type  1   force =     0.00000000    0.00000000    0.00000000
     atom    3 type  1   force =     0.00000000    0.00000000    0.00000000
     atom    4 type  1   force =     0.00000000    0.00000000    0.00000000
     atom    5 type  2   force =     0.00000000    0.00000000    0.00000000
     atom    6 type  2   force =     0.00000000    0.00000000   -0.00000000
     atom    7 type  2   force =     0.00000000    0.00000000    0.00000000
     atom    8 type  2   force =     0.00000000    0.00000000    0.00000000

     Total force =     0.000000     Total SCF correction =     0.000000


     Computing stress (Cartesian axis) and pressure

          total   stress  (Ry/bohr**3)                   (kbar)     P=    2.63
   0.00001789   0.00000000   0.00000000          2.63      0.00      0.00
   0.00000000   0.00001789   0.00000000          0.00      2.63      0.00
   0.00000000   0.00000000   0.00001789          0.00      0.00      2.63


     number of scf cycles    =   2
     number of bfgs steps    =   1

     enthalpy old            =    -606.0960096367 Ry
     enthalpy new            =    -606.0965577705 Ry

     CASE: enthalpy_new < enthalpy_old

     new trust radius        =       0.0022336694 bohr
     new conv_thr            =            1.0E-12 Ry

     new unit-cell volume =    490.02386 a.u.^3 (    72.61404 Ang^3 )
     density =      3.68632 g/cm^3

CELL_PARAMETERS (angstrom)
   4.171960682   0.000000000   0.000000000
   0.000000000   4.171960682   0.000000000
   0.000000000   0.000000000   4.171960682

ATOMIC_POSITIONS (crystal)
Mg       0.000000000   0.000000000   0.000000000
Mg       0.500000000   0.500000000   0.000000000
Mg       0.500000000   0.000000000   0.500000000
Mg       0.000000000   0.500000000   0.500000000
O        0.500000000   0.000000000   0.000000000
O        0.000000000   0.500000000  -0.000000000
O        0.000000000   0.000000000   0.500000000
O        0.500000000   0.500000000   0.500000000



     Writing output data file MgO.save/
     NEW-OLD atomic charge density approx. for the potential
     extrapolated charge   64.09684, renormalised to   64.00000

     total cpu time spent up to now is       50.4 secs

     Self-consistent Calculation

     iteration #  1     ecut=   100.00 Ry     beta= 0.70
     Davidson diagonalization with overlap
     ethr =  1.00E-06,  avg # of iterations =  2.0

     total cpu time spent up to now is       52.2 secs

     total energy              =    -606.09623302 Ry
     Harris-Foulkes estimate   =    -605.78521617 Ry
     estimated scf accuracy    <       0.00018053 Ry

     iteration #  2     ecut=   100.00 Ry     beta= 0.70
     Davidson diagonalization with overlap
     ethr =  2.82E-07,  avg # of iterations =  3.0

     total cpu time spent up to now is       54.8 secs

     total energy              =    -606.09654912 Ry
     Harris-Foulkes estimate   =    -606.09672774 Ry
     estimated scf accuracy    <       0.00047466 Ry

     iteration #  3     ecut=   100.00 Ry     beta= 0.70
     Davidson diagonalization with overlap
     ethr =  2.82E-07,  avg # of iterations =  2.0

     total cpu time spent up to now is       56.6 secs

     total energy              =    -606.09657571 Ry
     Harris-Foulkes estimate   =    -606.09659123 Ry
     estimated scf accuracy    <       0.00006167 Ry

     iteration #  4     ecut=   100.00 Ry     beta= 0.70
     Davidson diagonalization with overlap
     ethr =  9.64E-08,  avg # of iterations =  1.0

     total cpu time spent up to now is       57.9 secs

     total energy              =    -606.09656036 Ry
     Harris-Foulkes estimate   =    -606.09657702 Ry
     estimated scf accuracy    <       0.00003259 Ry

     iteration #  5     ecut=   100.00 Ry     beta= 0.70
     Davidson diagonalization with overlap
     ethr =  5.09E-08,  avg # of iterations =  2.0

     total cpu time spent up to now is       59.6 secs

     total energy              =    -606.09656430 Ry
     Harris-Foulkes estimate   =    -606.09656481 Ry
     estimated scf accuracy    <       0.00000078 Ry

     iteration #  6     ecut=   100.00 Ry     beta= 0.70
     Davidson diagonalization with overlap
     ethr =  1.21E-09,  avg # of iterations =  2.0

     total cpu time spent up to now is       61.7 secs

     total energy              =    -606.09656454 Ry
     Harris-Foulkes estimate   =    -606.09656453 Ry
     estimated scf accuracy    <       0.00000001 Ry

     iteration #  7     ecut=   100.00 Ry     beta= 0.70
     Davidson diagonalization with overlap
     ethr =  1.75E-11,  avg # of iterations =  3.0

     total cpu time spent up to now is       64.3 secs

     total energy              =    -606.09656450 Ry
     Harris-Foulkes estimate   =    -606.09656459 Ry
     estimated scf accuracy    <       0.00000016 Ry

     iteration #  8     ecut=   100.00 Ry     beta= 0.70
     Davidson diagonalization with overlap
     ethr =  1.75E-11,  avg # of iterations =  3.0

     total cpu time spent up to now is       66.7 secs

     total energy              =    -606.09656453 Ry
     Harris-Foulkes estimate   =    -606.09656453 Ry
     estimated scf accuracy    <          4.0E-10 Ry

     iteration #  9     ecut=   100.00 Ry     beta= 0.70
     Davidson diagonalization with overlap
     ethr =  6.32E-13,  avg # of iterations =  1.2

     total cpu time spent up to now is       68.1 secs

     total energy              =    -606.09656453 Ry
     Harris-Foulkes estimate   =    -606.09656453 Ry
     estimated scf accuracy    <          1.8E-10 Ry

     iteration # 10     ecut=   100.00 Ry     beta= 0.70
     Davidson diagonalization with overlap
     ethr =  2.79E-13,  avg # of iterations =  2.0

     total cpu time spent up to now is       69.8 secs

     total energy              =    -606.09656453 Ry
     Harris-Foulkes estimate   =    -606.09656453 Ry
     estimated scf accuracy    <          2.6E-11 Ry

     iteration # 11     ecut=   100.00 Ry     beta= 0.70
     Davidson diagonalization with overlap
     ethr =  1.00E-13,  avg # of iterations =  1.0

     total cpu time spent up to now is       71.2 secs

     End of self-consistent calculation

          k = 0.0000 0.0000 0.0000 (  8217 PWs)   bands (ev):

   -63.6864 -63.6723 -63.6723 -63.6723 -30.3726 -30.3726 -30.3726 -30.3183
   -30.3183 -30.3183 -30.3183 -30.3183 -30.3183 -30.2833 -30.2833 -30.2833
    -9.2267  -7.5526  -7.5526  -7.5526   3.8832   3.8832   3.8832   6.7234
     6.7234   6.7234   6.7234   6.7234   6.7234   8.1320   8.1320   8.1320

          k = 0.0000 0.0000 0.1244 (  8181 PWs)   bands (ev):

   -63.6858 -63.6728 -63.6723 -63.6723 -30.3705 -30.3705 -30.3697 -30.3203
   -30.3203 -30.3187 -30.3187 -30.3169 -30.3169 -30.2872 -30.2846 -30.2846
    -9.1645  -7.6170  -7.5416  -7.5416   3.9608   3.9608   3.9741   6.5622
     6.5622   6.6507   6.6507   6.7680   6.7680   7.8032   8.0668   8.0668

          k = 0.0000 0.0000 0.2489 (  8165 PWs)   bands (ev):

   -63.6843 -63.6744 -63.6723 -63.6723 -30.3646 -30.3646 -30.3611 -30.3262
   -30.3262 -30.3196 -30.3196 -30.3131 -30.3131 -30.2980 -30.2884 -30.2884
    -8.9863  -7.8004  -7.5148  -7.5148   4.1898   4.1898   4.2518   6.1423
     6.1423   6.4802   6.4802   6.8981   6.8981   7.0473   7.8873   7.8873

          k = 0.0000 0.0000 0.3733 (  8157 PWs)   bands (ev):

   -63.6820 -63.6766 -63.6723 -63.6723 -30.3557 -30.3557 -30.3478 -30.3350
   -30.3350 -30.3206 -30.3206 -30.3136 -30.3074 -30.3074 -30.2940 -30.2940
    -8.7175  -8.0749  -7.4878  -7.4878   4.5586   4.5586   4.7227   5.5963
     5.5963   6.1816   6.3164   6.3164   7.1020   7.1020   7.6348   7.6348

          k = 0.0000 0.0000-0.4977 (  8136 PWs)   bands (ev):

   -63.6793 -63.6793 -63.6723 -63.6723 -30.3453 -30.3453 -30.3453 -30.3453
   -30.3312 -30.3312 -30.3210 -30.3210 -30.3007 -30.3007 -30.3007 -30.3007
    -8.3975  -8.3975  -7.4766  -7.4766   5.0425   5.0425   5.0425   5.0425
     5.3787   5.3787   6.2502   6.2502   7.3585   7.3585   7.3585   7.3585

          k = 0.0000 0.1244 0.1244 (  8175 PWs)   bands (ev):

   -63.6853 -63.6728 -63.6728 -63.6723 -30.3685 -30.3681 -30.3681 -30.3252
   -30.3189 -30.3189 -30.3170 -30.3170 -30.3159 -30.2931 -30.2859 -30.2836
    -9.1034  -7.6029  -7.6029  -7.5331   4.0351   4.0351   4.0377   6.2391
     6.6097   6.6097   6.7077   6.7077   6.7772   7.4554   7.9967   8.0818

          k = 0.0000 0.1244 0.2489 (  8175 PWs)   bands (ev):

   -63.6838 -63.6743 -63.6727 -63.6724 -30.3638 -30.3626 -30.3611 -30.3326
   -30.3247 -30.3171 -30.3150 -30.3147 -30.3124 -30.3047 -30.2898 -30.2858
    -8.9289  -7.7784  -7.5676  -7.5137   4.2129   4.2651   4.2677   5.7712
     6.1965   6.5740   6.7386   6.7483   6.7612   6.8694   7.8044   7.9479

          k = 0.0000 0.1244 0.3733 (  8164 PWs)   bands (ev):

   -63.6816 -63.6765 -63.6727 -63.6724 -30.3573 -30.3539 -30.3498 -30.3409
   -30.3334 -30.3196 -30.3169 -30.3150 -30.3092 -30.3057 -30.2956 -30.2911
    -8.6663  -8.0425  -7.5277  -7.4984   4.4935   4.6308   4.6753   5.2923
     5.6578   5.9798   6.4694   6.5935   6.9656   7.1117   7.5343   7.6981

          k = 0.0000 0.1244-0.4977 (  8130 PWs)   bands (ev):

   -63.6791 -63.6791 -63.6725 -63.6725 -30.3494 -30.3494 -30.3436 -30.3436
   -30.3354 -30.3354 -30.3160 -30.3160 -30.3024 -30.3024 -30.2982 -30.2982
    -8.3548  -8.3548  -7.5015  -7.5015   4.8587   4.8587   5.1101   5.1101
     5.2576   5.2576   6.4748   6.4748   7.2391   7.2391   7.4017   7.4017

          k = 0.0000 0.2489 0.2489 (  8174 PWs)   bands (ev):

   -63.6825 -63.6740 -63.6740 -63.6726 -30.3607 -30.3607 -30.3570 -30.3415
   -30.3206 -30.3206 -30.3172 -30.3106 -30.3106 -30.3097 -30.2939 -30.2850
    -8.7656  -7.7202  -7.7202  -7.5159   4.3156   4.3156   4.4871   5.2745
     6.1711   6.3550   6.3550   6.8200   6.8200   6.9315   7.5777   7.9357

          k = 0.0000 0.2489 0.3733 (  8179 PWs)   bands (ev):

   -63.6806 -63.6760 -63.6737 -63.6729 -30.3591 -30.3543 -30.3496 -30.3486
   -30.3312 -30.3289 -30.3144 -30.3085 -30.3072 -30.3023 -30.3000 -30.2879
    -8.5216  -7.9540  -7.6455  -7.5341   4.4061   4.5584   4.8434   4.8592
     5.5316   5.8381   6.6042   6.8169   6.9517   7.1454   7.2618   7.7649

          k = 0.0000 0.2489-0.4977 (  8152 PWs)   bands (ev):

   -63.6783 -63.6783 -63.6733 -63.6733 -30.3555 -30.3555 -30.3441 -30.3441
   -30.3388 -30.3388 -30.3072 -30.3072 -30.3071 -30.3071 -30.2941 -30.2941
    -8.2357  -8.2357  -7.5780  -7.5780   4.5733   4.5733   4.9707   4.9707
     5.3089   5.3089   6.8796   6.8796   6.9194   6.9194   7.4809   7.4809

          k = 0.0000 0.3733 0.3733 (  8152 PWs)   bands (ev):

   -63.6790 -63.6753 -63.6753 -63.6736 -30.3580 -30.3580 -30.3560 -30.3430
   -30.3407 -30.3222 -30.3222 -30.3066 -30.3016 -30.2995 -30.2995 -30.2882
    -8.3086  -7.8320  -7.8320  -7.6028   4.4426   4.4426   4.5498   5.0489
     5.1835   6.1233   6.1233   6.8874   7.1640   7.1972   7.1972   7.7107

          k = 0.0000 0.3733-0.4977 (  8156 PWs)   bands (ev):

   -63.6771 -63.6771 -63.6744 -63.6744 -30.3589 -30.3589 -30.3525 -30.3525
   -30.3315 -30.3315 -30.3144 -30.3144 -30.2991 -30.2991 -30.2923 -30.2923
    -8.0649  -8.0649  -7.7063  -7.7063   4.4170   4.4170   4.6620   4.6620
     5.6253   5.6253   6.4873   6.4873   7.2260   7.2260   7.5130   7.5130

          k = 0.0000-0.4977-0.4977 (  8116 PWs)   bands (ev):

   -63.6758 -63.6758 -63.6758 -63.6758 -30.3579 -30.3579 -30.3579 -30.3579
   -30.3229 -30.3229 -30.3229 -30.3229 -30.2939 -30.2939 -30.2939 -30.2939
    -7.8768  -7.8768  -7.8768  -7.8768   4.4525   4.4525   4.4525   4.4525
     6.0330   6.0330   6.0330   6.0330   7.4388   7.4388   7.4388   7.4388

          k = 0.1244 0.1244 0.1244 (  8181 PWs)   bands (ev):

   -63.6848 -63.6728 -63.6728 -63.6728 -30.3668 -30.3668 -30.3668 -30.3230
   -30.3230 -30.3230 -30.3147 -30.3147 -30.3147 -30.2990 -30.2848 -30.2848
    -9.0436  -7.5914  -7.5914  -7.5914   4.0905   4.0905   4.0905   6.3212
     6.3212   6.3212   6.8190   6.8190   6.8190   7.1310   8.0222   8.0222

          k = 0.1244 0.1244 0.2489 (  8178 PWs)   bands (ev):

   -63.6834 -63.6742 -63.6728 -63.6728 -30.3631 -30.3631 -30.3616 -30.3289
   -30.3289 -30.3168 -30.3133 -30.3133 -30.3112 -30.3111 -30.2883 -30.2863
    -8.8729  -7.7588  -7.5633  -7.5633   4.2465   4.2465   4.2677   5.9068
     5.9068   6.4773   6.5480   6.7889   6.7889   6.9409   7.8579   7.9021

          k = 0.1244 0.1244 0.3733 (  8161 PWs)   bands (ev):

   -63.6813 -63.6763 -63.6728 -63.6728 -30.3585 -30.3585 -30.3525 -30.3348
   -30.3348 -30.3256 -30.3129 -30.3129 -30.3084 -30.3059 -30.2935 -30.2915
    -8.6167  -8.0123  -7.5349  -7.5349   4.4614   4.4614   4.6032   5.5225
     5.5225   5.7592   6.6774   6.6774   6.8752   7.1313   7.6176   7.6256

          k = 0.1244 0.1244-0.4977 (  8140 PWs)   bands (ev):

   -63.6788 -63.6788 -63.6728 -63.6728 -30.3558 -30.3558 -30.3401 -30.3401
   -30.3378 -30.3378 -30.3130 -30.3130 -30.2997 -30.2997 -30.2993 -30.2993
    -8.3140  -8.3140  -7.5231  -7.5231   4.5945   4.5945   5.1097   5.1097
     5.3335   5.3335   6.6192   6.6192   7.2510   7.2510   7.3699   7.3699

          k = 0.1244 0.2489 0.2489 (  8177 PWs)   bands (ev):

   -63.6822 -63.6740 -63.6740 -63.6730 -30.3626 -30.3626 -30.3620 -30.3336
   -30.3237 -30.3206 -30.3206 -30.3091 -30.3091 -30.3087 -30.2911 -30.2859
    -8.7136  -7.7074  -7.7074  -7.5565   4.2647   4.2647   4.3156   5.5677
     5.8966   6.2381   6.2381   6.9357   6.9357   6.9648   7.6891   7.8917

          k = 0.1244 0.2489 0.3733 (  8175 PWs)   bands (ev):

   -63.6803 -63.6759 -63.6738 -63.6732 -30.3632 -30.3619 -30.3584 -30.3375
   -30.3343 -30.3256 -30.3114 -30.3071 -30.3063 -30.3025 -30.2965 -30.2887
    -8.4766  -7.9299  -7.6437  -7.5613   4.2648   4.3351   4.4257   5.2853
     5.4620   5.9159   6.6458   6.9076   6.9880   7.1660   7.4060   7.7237

          k = 0.1244 0.2489-0.4977 (  8146 PWs)   bands (ev):

   -63.6781 -63.6781 -63.6735 -63.6735 -30.3629 -30.3629 -30.3497 -30.3497
   -30.3308 -30.3308 -30.3059 -30.3059 -30.3033 -30.3033 -30.2949 -30.2949
    -8.2003  -8.2003  -7.5903  -7.5903   4.2921   4.2921   4.7721   4.7721
     5.6236   5.6236   6.9354   6.9354   7.0499   7.0499   7.4499   7.4499

          k = 0.1244 0.3733 0.3733 (  8160 PWs)   bands (ev):

   -63.6788 -63.6753 -63.6753 -63.6738 -30.3654 -30.3637 -30.3637 -30.3497
   -30.3299 -30.3170 -30.3170 -30.3021 -30.3011 -30.2994 -30.2994 -30.2887
    -8.2714  -7.8180  -7.8180  -7.6168   4.1833   4.2378   4.2378   4.7951
     5.6365   6.3166   6.3166   7.0873   7.1832   7.2141   7.2141   7.6881

          k = 0.1244 0.3733-0.4977 (  8152 PWs)   bands (ev):

   -63.6770 -63.6770 -63.6745 -63.6745 -30.3663 -30.3663 -30.3590 -30.3590
   -30.3236 -30.3236 -30.3091 -30.3091 -30.2987 -30.2987 -30.2926 -30.2926
    -8.0384  -8.0384  -7.7057  -7.7057   4.1394   4.1394   4.4218   4.4218
     5.9527   5.9527   6.7119   6.7119   7.2414   7.2414   7.5014   7.5014

          k = 0.1244-0.4977-0.4977 (  8136 PWs)   bands (ev):

   -63.6758 -63.6758 -63.6758 -63.6758 -30.3650 -30.3650 -30.3650 -30.3650
   -30.3162 -30.3162 -30.3162 -30.3162 -30.2939 -30.2939 -30.2939 -30.2939
    -7.8624  -7.8624  -7.8624  -7.8624   4.1871   4.1871   4.1871   4.1871
     6.3266   6.3266   6.3266   6.3266   7.4387   7.4387   7.4387   7.4387

          k = 0.2489 0.2489 0.2489 (  8165 PWs)   bands (ev):

   -63.6811 -63.6740 -63.6740 -63.6740 -30.3668 -30.3668 -30.3668 -30.3367
   -30.3203 -30.3203 -30.3203 -30.3060 -30.3060 -30.3060 -30.2885 -30.2885
    -8.5668  -7.6762  -7.6762  -7.6762   4.1302   4.1302   4.1303   5.3418
     6.1158   6.1158   6.1158   7.0616   7.0616   7.0616   7.7694   7.7694

          k = 0.2489 0.2489 0.3733 (  8138 PWs)   bands (ev):

   -63.6794 -63.6756 -63.6740 -63.6740 -30.3707 -30.3707 -30.3666 -30.3502
   -30.3198 -30.3198 -30.3073 -30.3035 -30.3035 -30.3020 -30.2925 -30.2903
    -8.3505  -7.8659  -7.6447  -7.6447   3.9851   3.9851   4.1324   4.7849
     6.0917   6.0917   6.6998   7.0939   7.0939   7.2118   7.5940   7.6126

          k = 0.2489 0.2489-0.4977 (  8144 PWs)   bands (ev):

   -63.6775 -63.6775 -63.6740 -63.6740 -30.3722 -30.3722 -30.3608 -30.3608
   -30.3196 -30.3196 -30.3026 -30.3026 -30.2973 -30.2973 -30.2968 -30.2968
    -8.1028  -8.1028  -7.6316  -7.6316   3.9232   3.9232   4.3585   4.3585
     6.1004   6.1004   7.0886   7.0886   7.2279   7.2279   7.3977   7.3977

          k = 0.2489 0.3733 0.3733 (  8156 PWs)   bands (ev):

   -63.6782 -63.6753 -63.6753 -63.6744 -30.3762 -30.3739 -30.3739 -30.3624
   -30.3150 -30.3081 -30.3081 -30.2996 -30.2989 -30.2989 -30.2953 -30.2901
    -8.1688  -7.7840  -7.7840  -7.6631   3.7674   3.8557   3.8557   4.3009
     6.3067   6.6649   6.6649   7.2385   7.2609   7.2609   7.4052   7.6248

          k = 0.2489 0.3733-0.4977 (  8156 PWs)   bands (ev):

   -63.6767 -63.6767 -63.6748 -63.6748 -30.3774 -30.3774 -30.3710 -30.3710
   -30.3111 -30.3111 -30.3004 -30.3004 -30.2977 -30.2977 -30.2934 -30.2934
    -7.9677  -7.9677  -7.7102  -7.7102   3.7171   3.7171   3.9682   3.9682
     6.5175   6.5175   7.1088   7.1088   7.2861   7.2861   7.4670   7.4670

          k = 0.2489-0.4977-0.4977 (  8140 PWs)   bands (ev):

   -63.6758 -63.6758 -63.6758 -63.6758 -30.3770 -30.3770 -30.3770 -30.3770
   -30.3050 -30.3050 -30.3050 -30.3050 -30.2939 -30.2939 -30.2939 -30.2939
    -7.8272  -7.8272  -7.8272  -7.8272   3.7338   3.7338   3.7338   3.7338
     6.8531   6.8531   6.8531   6.8531   7.4383   7.4383   7.4383   7.4383

          k = 0.3733 0.3733 0.3733 (  8156 PWs)   bands (ev):

   -63.6773 -63.6753 -63.6753 -63.6753 -30.3819 -30.3819 -30.3819 -30.3741
   -30.3025 -30.3025 -30.3025 -30.2974 -30.2974 -30.2974 -30.2923 -30.2923
    -8.0259  -7.7495  -7.7495  -7.7495   3.5520   3.5520   3.5520   3.8531
     6.9188   6.9188   6.9188   7.3231   7.3231   7.3231   7.5321   7.5321

          k = 0.3733 0.3733-0.4977 (  8152 PWs)   bands (ev):

   -63.6763 -63.6763 -63.6753 -63.6753 -30.3848 -30.3848 -30.3811 -30.3811
   -30.3014 -30.3014 -30.2960 -30.2960 -30.2948 -30.2948 -30.2947 -30.2947
    -7.8759  -7.8759  -7.7351  -7.7351   3.4398   3.4398   3.5834   3.5834
     7.0019   7.0019   7.3571   7.3571   7.3596   7.3596   7.4259   7.4259

          k = 0.3733-0.4977-0.4977 (  8164 PWs)   bands (ev):

   -63.6758 -63.6758 -63.6758 -63.6758 -30.3861 -30.3861 -30.3861 -30.3861
   -30.2968 -30.2968 -30.2968 -30.2968 -30.2938 -30.2938 -30.2938 -30.2938
    -7.7915  -7.7915  -7.7915  -7.7915   3.3914   3.3914   3.3914   3.3914
     7.2770   7.2770   7.2770   7.2770   7.4379   7.4379   7.4379   7.4379

          k =-0.4977-0.4977-0.4977 (  8144 PWs)   bands (ev):

   -63.6758 -63.6758 -63.6758 -63.6758 -30.3894 -30.3894 -30.3894 -30.3894
   -30.2938 -30.2938 -30.2938 -30.2938 -30.2938 -30.2938 -30.2938 -30.2938
    -7.7766  -7.7766  -7.7766  -7.7766   3.2672   3.2672   3.2672   3.2672
     7.4377   7.4377   7.4377   7.4377   7.4377   7.4377   7.4377   7.4377

     highest occupied level (ev):     8.1320

!    total energy              =    -606.09656453 Ry
     Harris-Foulkes estimate   =    -606.09656453 Ry
     estimated scf accuracy    <          7.1E-13 Ry

     The total energy is the sum of the following terms:

     one-electron contribution =    -290.55250491 Ry
     hartree contribution      =     162.51778201 Ry
     xc contribution           =     -95.35139823 Ry
     ewald contribution        =    -382.71044340 Ry

     convergence has been achieved in  11 iterations

     Forces acting on atoms (cartesian axes, Ry/au):

     atom    1 type  1   force =     0.00000000    0.00000000   -0.00000000
     atom    2 type  1   force =     0.00000000    0.00000000   -0.00000000
     atom    3 type  1   force =     0.00000000   -0.00000000    0.00000000
     atom    4 type  1   force =     0.00000000    0.00000000    0.00000000
     atom    5 type  2   force =     0.00000000    0.00000000    0.00000000
     atom    6 type  2   force =     0.00000000    0.00000000    0.00000000
     atom    7 type  2   force =     0.00000000    0.00000000   -0.00000000
     atom    8 type  2   force =     0.00000000    0.00000000    0.00000000

     Total force =     0.000000     Total SCF correction =     0.000000


     Computing stress (Cartesian axis) and pressure

          total   stress  (Ry/bohr**3)                   (kbar)     P=    0.05
   0.00000036   0.00000000   0.00000000          0.05      0.00      0.00
   0.00000000   0.00000036   0.00000000          0.00      0.05      0.00
   0.00000000   0.00000000   0.00000036          0.00      0.00      0.05


     number of scf cycles    =   3
     number of bfgs steps    =   2

     enthalpy old            =    -606.0965577705 Ry
     enthalpy new            =    -606.0965645277 Ry

     CASE: enthalpy_new < enthalpy_old

     small trust_radius: resetting bfgs history

     new trust radius        =       0.0000393064 bohr
     new conv_thr            =            1.0E-12 Ry

     new unit-cell volume =    490.03691 a.u.^3 (    72.61598 Ang^3 )
     density =      3.68623 g/cm^3

CELL_PARAMETERS (angstrom)
   4.171997722   0.000000000   0.000000000
   0.000000000   4.171997722   0.000000000
   0.000000000   0.000000000   4.171997722

ATOMIC_POSITIONS (crystal)
Mg       0.000000000   0.000000000  -0.000000000
Mg       0.500000000   0.500000000  -0.000000000
Mg       0.500000000  -0.000000000   0.500000000
Mg       0.000000000   0.500000000   0.500000000
O        0.500000000   0.000000000   0.000000000
O        0.000000000   0.500000000  -0.000000000
O        0.000000000   0.000000000   0.500000000
O        0.500000000   0.500000000   0.500000000



     Writing output data file MgO.save/
     NEW-OLD atomic charge density approx. for the potential
     extrapolated charge   64.00170, renormalised to   64.00000

     total cpu time spent up to now is       73.2 secs

     Self-consistent Calculation

     iteration #  1     ecut=   100.00 Ry     beta= 0.70
     Davidson diagonalization with overlap
     ethr =  1.00E-06,  avg # of iterations =  1.0

     Threshold (ethr) on eigenvalues was too large:
     Diagonalizing with lowered threshold

     Davidson diagonalization with overlap
     ethr =  8.55E-11,  avg # of iterations =  1.0

     total cpu time spent up to now is       75.9 secs

     total energy              =    -606.09656443 Ry
     Harris-Foulkes estimate   =    -606.09108668 Ry
     estimated scf accuracy    <       0.00000005 Ry

     iteration #  2     ecut=   100.00 Ry     beta= 0.70
     Davidson diagonalization with overlap
     ethr =  8.55E-11,  avg # of iterations =  3.0

     total cpu time spent up to now is       78.6 secs

     total energy              =    -606.09656453 Ry
     Harris-Foulkes estimate   =    -606.09656458 Ry
     estimated scf accuracy    <       0.00000014 Ry

     iteration #  3     ecut=   100.00 Ry     beta= 0.70
     Davidson diagonalization with overlap
     ethr =  8.55E-11,  avg # of iterations =  2.0

     total cpu time spent up to now is       80.3 secs

     total energy              =    -606.09656453 Ry
     Harris-Foulkes estimate   =    -606.09656454 Ry
     estimated scf accuracy    <       0.00000002 Ry

     iteration #  4     ecut=   100.00 Ry     beta= 0.70
     Davidson diagonalization with overlap
     ethr =  2.88E-11,  avg # of iterations =  1.0

     total cpu time spent up to now is       81.6 secs

     total energy              =    -606.09656453 Ry
     Harris-Foulkes estimate   =    -606.09656453 Ry
     estimated scf accuracy    <          9.8E-09 Ry

     iteration #  5     ecut=   100.00 Ry     beta= 0.70
     Davidson diagonalization with overlap
     ethr =  1.53E-11,  avg # of iterations =  2.0

     total cpu time spent up to now is       83.3 secs

     total energy              =    -606.09656453 Ry
     Harris-Foulkes estimate   =    -606.09656453 Ry
     estimated scf accuracy    <          2.4E-10 Ry

     iteration #  6     ecut=   100.00 Ry     beta= 0.70
     Davidson diagonalization with overlap
     ethr =  3.76E-13,  avg # of iterations =  2.0

     total cpu time spent up to now is       85.3 secs

     total energy              =    -606.09656453 Ry
     Harris-Foulkes estimate   =    -606.09656453 Ry
     estimated scf accuracy    <          5.8E-12 Ry

     iteration #  7     ecut=   100.00 Ry     beta= 0.70
     Davidson diagonalization with overlap
     ethr =  1.00E-13,  avg # of iterations =  2.0

     total cpu time spent up to now is       87.0 secs

     total energy              =    -606.09656453 Ry
     Harris-Foulkes estimate   =    -606.09656453 Ry
     estimated scf accuracy    <          3.1E-11 Ry

     iteration #  8     ecut=   100.00 Ry     beta= 0.70
     Davidson diagonalization with overlap
     ethr =  1.00E-13,  avg # of iterations =  2.0

     total cpu time spent up to now is       88.6 secs

     End of self-consistent calculation

          k = 0.0000 0.0000 0.0000 (  8217 PWs)   bands (ev):

   -63.6868 -63.6727 -63.6727 -63.6727 -30.3730 -30.3730 -30.3730 -30.3187
   -30.3187 -30.3187 -30.3187 -30.3187 -30.3187 -30.2837 -30.2837 -30.2837
    -9.2269  -7.5529  -7.5529  -7.5529   3.8830   3.8830   3.8830   6.7231
     6.7231   6.7231   6.7231   6.7231   6.7231   8.1317   8.1317   8.1317

          k = 0.0000 0.0000 0.1244 (  8181 PWs)   bands (ev):

   -63.6863 -63.6733 -63.6727 -63.6727 -30.3709 -30.3709 -30.3701 -30.3207
   -30.3207 -30.3191 -30.3191 -30.3173 -30.3173 -30.2876 -30.2850 -30.2850
    -9.1647  -7.6172  -7.5419  -7.5419   3.9605   3.9605   3.9739   6.5619
     6.5619   6.6504   6.6504   6.7677   6.7677   7.8029   8.0664   8.0664

          k = 0.0000 0.0000 0.2489 (  8165 PWs)   bands (ev):

   -63.6847 -63.6748 -63.6727 -63.6727 -30.3650 -30.3650 -30.3615 -30.3266
   -30.3266 -30.3200 -30.3200 -30.3135 -30.3135 -30.2984 -30.2888 -30.2888
    -8.9865  -7.8006  -7.5151  -7.5151   4.1896   4.1896   4.2515   6.1420
     6.1420   6.4799   6.4799   6.8978   6.8978   7.0469   7.8870   7.8870

          k = 0.0000 0.0000 0.3733 (  8157 PWs)   bands (ev):

   -63.6824 -63.6771 -63.6727 -63.6727 -30.3562 -30.3562 -30.3482 -30.3354
   -30.3354 -30.3210 -30.3210 -30.3140 -30.3078 -30.3078 -30.2944 -30.2944
    -8.7178  -8.0751  -7.4881  -7.4881   4.5583   4.5583   4.7225   5.5961
     5.5961   6.1813   6.3161   6.3161   7.1017   7.1017   7.6345   7.6345

          k = 0.0000 0.0000-0.4977 (  8136 PWs)   bands (ev):

   -63.6797 -63.6797 -63.6727 -63.6727 -30.3458 -30.3458 -30.3458 -30.3458
   -30.3316 -30.3316 -30.3214 -30.3214 -30.3011 -30.3011 -30.3011 -30.3011
    -8.3977  -8.3977  -7.4769  -7.4769   5.0422   5.0422   5.0422   5.0422
     5.3784   5.3784   6.2500   6.2500   7.3582   7.3582   7.3582   7.3582

          k = 0.0000 0.1244 0.1244 (  8175 PWs)   bands (ev):

   -63.6857 -63.6732 -63.6732 -63.6727 -30.3689 -30.3686 -30.3686 -30.3257
   -30.3194 -30.3194 -30.3174 -30.3174 -30.3163 -30.2935 -30.2864 -30.2840
    -9.1036  -7.6032  -7.6032  -7.5334   4.0348   4.0348   4.0375   6.2388
     6.6094   6.6094   6.7074   6.7074   6.7769   7.4551   7.9964   8.0814

          k = 0.0000 0.1244 0.2489 (  8175 PWs)   bands (ev):

   -63.6843 -63.6747 -63.6732 -63.6728 -30.3642 -30.3630 -30.3615 -30.3330
   -30.3251 -30.3175 -30.3155 -30.3151 -30.3128 -30.3051 -30.2902 -30.2863
    -8.9292  -7.7787  -7.5679  -7.5140   4.2126   4.2648   4.2675   5.7709
     6.1962   6.5737   6.7383   6.7480   6.7608   6.8691   7.8040   7.9476

          k = 0.0000 0.1244 0.3733 (  8164 PWs)   bands (ev):

   -63.6821 -63.6769 -63.6731 -63.6729 -30.3577 -30.3543 -30.3503 -30.3413
   -30.3338 -30.3200 -30.3173 -30.3154 -30.3096 -30.3061 -30.2960 -30.2915
    -8.6666  -8.0428  -7.5280  -7.4987   4.4932   4.6305   4.6750   5.2920
     5.6576   5.9795   6.4691   6.5932   6.9653   7.1114   7.5339   7.6978

          k = 0.0000 0.1244-0.4977 (  8130 PWs)   bands (ev):

   -63.6795 -63.6795 -63.6730 -63.6730 -30.3498 -30.3498 -30.3440 -30.3440
   -30.3358 -30.3358 -30.3165 -30.3165 -30.3028 -30.3028 -30.2986 -30.2986
    -8.3551  -8.3551  -7.5018  -7.5018   4.8585   4.8585   5.1099   5.1099
     5.2573   5.2573   6.4745   6.4745   7.2388   7.2388   7.4013   7.4013

          k = 0.0000 0.2489 0.2489 (  8174 PWs)   bands (ev):

   -63.6830 -63.6745 -63.6745 -63.6730 -30.3611 -30.3611 -30.3574 -30.3420
   -30.3210 -30.3210 -30.3176 -30.3111 -30.3111 -30.3101 -30.2943 -30.2854
    -8.7658  -7.7204  -7.7204  -7.5162   4.3154   4.3154   4.4868   5.2742
     6.1708   6.3547   6.3547   6.8197   6.8197   6.9312   7.5774   7.9353

          k = 0.0000 0.2489 0.3733 (  8179 PWs)   bands (ev):

   -63.6810 -63.6764 -63.6741 -63.6733 -30.3596 -30.3547 -30.3500 -30.3490
   -30.3316 -30.3293 -30.3149 -30.3089 -30.3076 -30.3027 -30.3004 -30.2884
    -8.5218  -7.9542  -7.6458  -7.5343   4.4058   4.5582   4.8432   4.8590
     5.5313   5.8378   6.6039   6.8166   6.9514   7.1451   7.2615   7.7646

          k = 0.0000 0.2489-0.4977 (  8152 PWs)   bands (ev):

   -63.6787 -63.6787 -63.6737 -63.6737 -30.3560 -30.3560 -30.3445 -30.3445
   -30.3392 -30.3392 -30.3076 -30.3076 -30.3075 -30.3075 -30.2946 -30.2946
    -8.2360  -8.2360  -7.5783  -7.5783   4.5731   4.5731   4.9704   4.9704
     5.3087   5.3087   6.8793   6.8793   6.9191   6.9191   7.4806   7.4806

          k = 0.0000 0.3733 0.3733 (  8152 PWs)   bands (ev):

   -63.6794 -63.6757 -63.6757 -63.6740 -30.3584 -30.3584 -30.3565 -30.3434
   -30.3412 -30.3227 -30.3227 -30.3070 -30.3020 -30.2999 -30.2999 -30.2886
    -8.3089  -7.8322  -7.8322  -7.6031   4.4424   4.4424   4.5496   5.0487
     5.1833   6.1230   6.1230   6.8871   7.1637   7.1969   7.1969   7.7103

          k = 0.0000 0.3733-0.4977 (  8156 PWs)   bands (ev):

   -63.6776 -63.6776 -63.6749 -63.6749 -30.3593 -30.3593 -30.3529 -30.3529
   -30.3319 -30.3319 -30.3148 -30.3148 -30.2995 -30.2995 -30.2927 -30.2927
    -8.0651  -8.0651  -7.7066  -7.7066   4.4167   4.4167   4.6617   4.6617
     5.6251   5.6251   6.4870   6.4870   7.2257   7.2257   7.5127   7.5127

          k = 0.0000-0.4977-0.4977 (  8116 PWs)   bands (ev):

   -63.6762 -63.6762 -63.6762 -63.6762 -30.3583 -30.3583 -30.3583 -30.3583
   -30.3233 -30.3233 -30.3233 -30.3233 -30.2943 -30.2943 -30.2943 -30.2943
    -7.8771  -7.8771  -7.8771  -7.8771   4.4522   4.4522   4.4522   4.4522
     6.0327   6.0327   6.0327   6.0327   7.4385   7.4385   7.4385   7.4385

          k = 0.1244 0.1244 0.1244 (  8181 PWs)   bands (ev):

   -63.6853 -63.6732 -63.6732 -63.6732 -30.3672 -30.3672 -30.3672 -30.3234
   -30.3234 -30.3234 -30.3151 -30.3151 -30.3151 -30.2994 -30.2852 -30.2852
    -9.0438  -7.5917  -7.5917  -7.5917   4.0903   4.0903   4.0903   6.3209
     6.3209   6.3209   6.8187   6.8187   6.8187   7.1307   8.0219   8.0219

          k = 0.1244 0.1244 0.2489 (  8178 PWs)   bands (ev):

   -63.6838 -63.6746 -63.6732 -63.6732 -30.3636 -30.3636 -30.3620 -30.3294
   -30.3294 -30.3173 -30.3137 -30.3137 -30.3116 -30.3115 -30.2887 -30.2867
    -8.8731  -7.7590  -7.5636  -7.5636   4.2463   4.2463   4.2674   5.9066
     5.9066   6.4770   6.5477   6.7886   6.7886   6.9406   7.8576   7.9018

          k = 0.1244 0.1244 0.3733 (  8161 PWs)   bands (ev):

   -63.6817 -63.6767 -63.6732 -63.6732 -30.3589 -30.3589 -30.3530 -30.3353
   -30.3353 -30.3260 -30.3134 -30.3134 -30.3088 -30.3063 -30.2939 -30.2919
    -8.6169  -8.0125  -7.5352  -7.5352   4.4611   4.4611   4.6030   5.5223
     5.5223   5.7589   6.6771   6.6771   6.8749   7.1310   7.6173   7.6253

          k = 0.1244 0.1244-0.4977 (  8140 PWs)   bands (ev):

   -63.6792 -63.6792 -63.6732 -63.6732 -30.3562 -30.3562 -30.3405 -30.3405
   -30.3382 -30.3382 -30.3134 -30.3134 -30.3001 -30.3001 -30.2998 -30.2998
    -8.3142  -8.3142  -7.5234  -7.5234   4.5943   4.5943   5.1094   5.1094
     5.3332   5.3332   6.6189   6.6189   7.2507   7.2507   7.3696   7.3696

          k = 0.1244 0.2489 0.2489 (  8177 PWs)   bands (ev):

   -63.6826 -63.6745 -63.6745 -63.6734 -30.3630 -30.3630 -30.3624 -30.3341
   -30.3241 -30.3210 -30.3210 -30.3095 -30.3095 -30.3092 -30.2915 -30.2863
    -8.7139  -7.7076  -7.7076  -7.5568   4.2645   4.2645   4.3154   5.5674
     5.8963   6.2378   6.2378   6.9354   6.9354   6.9645   7.6888   7.8914

          k = 0.1244 0.2489 0.3733 (  8175 PWs)   bands (ev):

   -63.6807 -63.6763 -63.6742 -63.6736 -30.3637 -30.3623 -30.3588 -30.3380
   -30.3347 -30.3260 -30.3118 -30.3076 -30.3067 -30.3029 -30.2969 -30.2891
    -8.4768  -7.9301  -7.6440  -7.5616   4.2646   4.3348   4.4254   5.2851
     5.4617   5.9156   6.6455   6.9073   6.9877   7.1657   7.4056   7.7234

          k = 0.1244 0.2489-0.4977 (  8146 PWs)   bands (ev):

   -63.6785 -63.6785 -63.6739 -63.6739 -30.3633 -30.3633 -30.3501 -30.3501
   -30.3312 -30.3312 -30.3063 -30.3063 -30.3038 -30.3038 -30.2953 -30.2953
    -8.2005  -8.2005  -7.5906  -7.5906   4.2919   4.2919   4.7718   4.7718
     5.6233   5.6233   6.9351   6.9351   7.0496   7.0496   7.4496   7.4496

          k = 0.1244 0.3733 0.3733 (  8160 PWs)   bands (ev):

   -63.6792 -63.6757 -63.6757 -63.6742 -30.3658 -30.3641 -30.3641 -30.3501
   -30.3304 -30.3174 -30.3174 -30.3025 -30.3015 -30.2998 -30.2998 -30.2891
    -8.2717  -7.8183  -7.8183  -7.6171   4.1831   4.2376   4.2376   4.7948
     5.6362   6.3163   6.3163   7.0870   7.1829   7.2138   7.2138   7.6878

          k = 0.1244 0.3733-0.4977 (  8152 PWs)   bands (ev):

   -63.6775 -63.6775 -63.6750 -63.6750 -30.3667 -30.3667 -30.3594 -30.3594
   -30.3240 -30.3240 -30.3096 -30.3096 -30.2991 -30.2991 -30.2930 -30.2930
    -8.0386  -8.0386  -7.7059  -7.7059   4.1391   4.1391   4.4215   4.4215
     5.9524   5.9524   6.7116   6.7116   7.2411   7.2411   7.5011   7.5011

          k = 0.1244-0.4977-0.4977 (  8136 PWs)   bands (ev):

   -63.6762 -63.6762 -63.6762 -63.6762 -30.3654 -30.3654 -30.3654 -30.3654
   -30.3166 -30.3166 -30.3166 -30.3166 -30.2943 -30.2943 -30.2943 -30.2943
    -7.8627  -7.8627  -7.8627  -7.8627   4.1869   4.1869   4.1869   4.1869
     6.3263   6.3263   6.3263   6.3263   7.4383   7.4383   7.4383   7.4383

          k = 0.2489 0.2489 0.2489 (  8165 PWs)   bands (ev):

   -63.6815 -63.6745 -63.6745 -63.6745 -30.3672 -30.3672 -30.3672 -30.3372
   -30.3207 -30.3207 -30.3207 -30.3065 -30.3065 -30.3065 -30.2890 -30.2890
    -8.5670  -7.6765  -7.6765  -7.6765   4.1300   4.1300   4.1300   5.3415
[...]
     Harris-Foulkes estimate   =    -606.09677800 Ry
     estimated scf accuracy    <       0.00003203 Ry

     iteration #  5     ecut=   125.00 Ry     beta= 0.70
     Davidson diagonalization with overlap
     ethr =  5.01E-08,  avg # of iterations =  3.0

     total cpu time spent up to now is      129.6 secs

     total energy              =    -606.09677683 Ry
     Harris-Foulkes estimate   =    -606.09677947 Ry
     estimated scf accuracy    <       0.00000577 Ry

     iteration #  6     ecut=   125.00 Ry     beta= 0.70
     Davidson diagonalization with overlap
     ethr =  9.02E-09,  avg # of iterations =  2.0

     total cpu time spent up to now is      131.9 secs

     total energy              =    -606.09677802 Ry
     Harris-Foulkes estimate   =    -606.09677835 Ry
     estimated scf accuracy    <       0.00000066 Ry

     iteration #  7     ecut=   125.00 Ry     beta= 0.70
     Davidson diagonalization with overlap
     ethr =  1.03E-09,  avg # of iterations =  2.0

     total cpu time spent up to now is      134.1 secs

     total energy              =    -606.09677813 Ry
     Harris-Foulkes estimate   =    -606.09677813 Ry
     estimated scf accuracy    <          7.0E-09 Ry

     iteration #  8     ecut=   125.00 Ry     beta= 0.70
     Davidson diagonalization with overlap
     ethr =  1.10E-11,  avg # of iterations =  2.0

     total cpu time spent up to now is      136.7 secs

     total energy              =    -606.09677813 Ry
     Harris-Foulkes estimate   =    -606.09677813 Ry
     estimated scf accuracy    <          5.6E-10 Ry

     iteration #  9     ecut=   125.00 Ry     beta= 0.70
     Davidson diagonalization with overlap
     ethr =  8.76E-13,  avg # of iterations =  2.3

     total cpu time spent up to now is      139.2 secs

     total energy              =    -606.09677813 Ry
     Harris-Foulkes estimate   =    -606.09677813 Ry
     estimated scf accuracy    <          9.1E-11 Ry

     iteration # 10     ecut=   125.00 Ry     beta= 0.70
     Davidson diagonalization with overlap
     ethr =  1.42E-13,  avg # of iterations =  2.0

     total cpu time spent up to now is      141.1 secs

     total energy              =    -606.09677813 Ry
     Harris-Foulkes estimate   =    -606.09677813 Ry
     estimated scf accuracy    <          3.1E-11 Ry

     iteration # 11     ecut=   125.00 Ry     beta= 0.70
     Davidson diagonalization with overlap
     ethr =  1.00E-13,  avg # of iterations =  2.0

     total cpu time spent up to now is      143.3 secs

     End of self-consistent calculation

          k = 0.0000 0.0000 0.0000 ( 11513 PWs)   bands (ev):

   -63.6863 -63.6722 -63.6722 -63.6722 -30.3728 -30.3728 -30.3728 -30.3185
   -30.3185 -30.3185 -30.3185 -30.3185 -30.3185 -30.2835 -30.2835 -30.2835
    -9.2266  -7.5525  -7.5525  -7.5525   3.8833   3.8833   3.8833   6.7235
     6.7235   6.7235   6.7235   6.7235   6.7235   8.1321   8.1321   8.1321

          k = 0.0000 0.0000 0.1244 ( 11552 PWs)   bands (ev):

   -63.6858 -63.6728 -63.6722 -63.6722 -30.3707 -30.3707 -30.3699 -30.3205
   -30.3205 -30.3189 -30.3189 -30.3171 -30.3171 -30.2874 -30.2848 -30.2848
    -9.1644  -7.6168  -7.5415  -7.5415   3.9608   3.9608   3.9742   6.5623
     6.5623   6.6508   6.6508   6.7681   6.7681   7.8033   8.0669   8.0669

          k = 0.0000 0.0000 0.2489 ( 11540 PWs)   bands (ev):

   -63.6842 -63.6743 -63.6722 -63.6722 -30.3648 -30.3648 -30.3613 -30.3264
   -30.3264 -30.3198 -30.3198 -30.3133 -30.3133 -30.2982 -30.2886 -30.2886
    -8.9862  -7.8003  -7.5147  -7.5147   4.1899   4.1899   4.2518   6.1424
     6.1424   6.4803   6.4803   6.8982   6.8982   7.0474   7.8874   7.8874

          k = 0.0000 0.0000 0.3733 ( 11548 PWs)   bands (ev):

   -63.6819 -63.6766 -63.6722 -63.6722 -30.3559 -30.3559 -30.3480 -30.3352
   -30.3352 -30.3208 -30.3208 -30.3138 -30.3076 -30.3076 -30.2942 -30.2942
    -8.7174  -8.0748  -7.4877  -7.4877   4.5587   4.5587   4.7228   5.5964
     5.5964   6.1817   6.3165   6.3165   7.1021   7.1021   7.6349   7.6349

          k = 0.0000 0.0000-0.4977 ( 11524 PWs)   bands (ev):

   -63.6792 -63.6792 -63.6722 -63.6722 -30.3455 -30.3455 -30.3455 -30.3455
   -30.3314 -30.3314 -30.3212 -30.3212 -30.3009 -30.3009 -30.3009 -30.3009
    -8.3974  -8.3974  -7.4765  -7.4765   5.0425   5.0425   5.0425   5.0425
     5.3788   5.3788   6.2503   6.2503   7.3586   7.3586   7.3586   7.3586

          k = 0.0000 0.1244 0.1244 ( 11540 PWs)   bands (ev):

   -63.6852 -63.6727 -63.6727 -63.6722 -30.3687 -30.3683 -30.3683 -30.3254
   -30.3191 -30.3191 -30.3172 -30.3172 -30.3161 -30.2933 -30.2861 -30.2838
    -9.1033  -7.6028  -7.6028  -7.5330   4.0351   4.0351   4.0378   6.2392
     6.6098   6.6098   6.7078   6.7078   6.7773   7.4555   7.9968   8.0819

          k = 0.0000 0.1244 0.2489 ( 11541 PWs)   bands (ev):

   -63.6838 -63.6742 -63.6727 -63.6723 -30.3640 -30.3628 -30.3613 -30.3328
   -30.3249 -30.3173 -30.3152 -30.3149 -30.3126 -30.3049 -30.2900 -30.2860
    -8.9289  -7.7783  -7.5675  -7.5136   4.2129   4.2652   4.2678   5.7713
     6.1966   6.5741   6.7387   6.7484   6.7613   6.8695   7.8045   7.9480

          k = 0.0000 0.1244 0.3733 ( 11560 PWs)   bands (ev):

   -63.6816 -63.6764 -63.6726 -63.6724 -30.3575 -30.3541 -30.3500 -30.3411
   -30.3336 -30.3198 -30.3171 -30.3152 -30.3094 -30.3059 -30.2958 -30.2913
    -8.6662  -8.0424  -7.5276  -7.4982   4.4936   4.6308   4.6754   5.2924
     5.6579   5.9799   6.4694   6.5936   6.9657   7.1118   7.5344   7.6982

          k = 0.0000 0.1244-0.4977 ( 11560 PWs)   bands (ev):

   -63.6790 -63.6790 -63.6725 -63.6725 -30.3496 -30.3496 -30.3438 -30.3438
   -30.3356 -30.3356 -30.3162 -30.3162 -30.3026 -30.3026 -30.2984 -30.2984
    -8.3547  -8.3547  -7.5014  -7.5014   4.8588   4.8588   5.1102   5.1102
     5.2577   5.2577   6.4749   6.4749   7.2392   7.2392   7.4018   7.4018

          k = 0.0000 0.2489 0.2489 ( 11562 PWs)   bands (ev):

   -63.6825 -63.6740 -63.6740 -63.6725 -30.3609 -30.3609 -30.3572 -30.3417
   -30.3208 -30.3208 -30.3174 -30.3108 -30.3108 -30.3099 -30.2941 -30.2852
    -8.7655  -7.7200  -7.7200  -7.5158   4.3157   4.3157   4.4871   5.2746
     6.1712   6.3551   6.3551   6.8201   6.8201   6.9316   7.5778   7.9358

          k = 0.0000 0.2489 0.3733 ( 11558 PWs)   bands (ev):

   -63.6805 -63.6759 -63.6736 -63.6728 -30.3593 -30.3545 -30.3498 -30.3488
   -30.3314 -30.3291 -30.3146 -30.3087 -30.3074 -30.3025 -30.3002 -30.2881
    -8.5215  -7.9538  -7.6454  -7.5339   4.4062   4.5585   4.8435   4.8593
     5.5317   5.8382   6.6043   6.8170   6.9518   7.1455   7.2619   7.7650

          k = 0.0000 0.2489-0.4977 ( 11540 PWs)   bands (ev):

   -63.6782 -63.6782 -63.6732 -63.6732 -30.3557 -30.3557 -30.3443 -30.3443
   -30.3390 -30.3390 -30.3074 -30.3074 -30.3073 -30.3073 -30.2943 -30.2943
    -8.2356  -8.2356  -7.5779  -7.5779   4.5734   4.5734   4.9708   4.9708
     5.3090   5.3090   6.8797   6.8797   6.9195   6.9195   7.4810   7.4810

          k = 0.0000 0.3733 0.3733 ( 11582 PWs)   bands (ev):

   -63.6789 -63.6752 -63.6752 -63.6735 -30.3582 -30.3582 -30.3562 -30.3432
   -30.3409 -30.3224 -30.3224 -30.3068 -30.3018 -30.2997 -30.2997 -30.2884
    -8.3085  -7.8318  -7.8318  -7.6027   4.4427   4.4427   4.5499   5.0490
     5.1836   6.1234   6.1234   6.8875   7.1641   7.1973   7.1973   7.7108

          k = 0.0000 0.3733-0.4977 ( 11580 PWs)   bands (ev):

   -63.6771 -63.6771 -63.6744 -63.6744 -30.3591 -30.3591 -30.3527 -30.3527
   -30.3317 -30.3317 -30.3146 -30.3146 -30.2993 -30.2993 -30.2925 -30.2925
    -8.0648  -8.0648  -7.7062  -7.7062   4.4171   4.4171   4.6621   4.6621
     5.6254   5.6254   6.4874   6.4874   7.2261   7.2261   7.5131   7.5131

          k = 0.0000-0.4977-0.4977 ( 11576 PWs)   bands (ev):

   -63.6757 -63.6757 -63.6757 -63.6757 -30.3581 -30.3581 -30.3581 -30.3581
   -30.3231 -30.3231 -30.3231 -30.3231 -30.2941 -30.2941 -30.2941 -30.2941
    -7.8767  -7.8767  -7.8767  -7.8767   4.4526   4.4526   4.4526   4.4526
     6.0331   6.0331   6.0331   6.0331   7.4389   7.4389   7.4389   7.4389

          k = 0.1244 0.1244 0.1244 ( 11542 PWs)   bands (ev):

   -63.6847 -63.6727 -63.6727 -63.6727 -30.3670 -30.3670 -30.3670 -30.3232
   -30.3232 -30.3232 -30.3149 -30.3149 -30.3149 -30.2992 -30.2850 -30.2850
    -9.0435  -7.5913  -7.5913  -7.5913   4.0906   4.0906   4.0906   6.3213
     6.3213   6.3213   6.8191   6.8191   6.8191   7.1311   8.0223   8.0223

          k = 0.1244 0.1244 0.2489 ( 11536 PWs)   bands (ev):

   -63.6833 -63.6741 -63.6727 -63.6727 -30.3634 -30.3634 -30.3618 -30.3291
   -30.3291 -30.3170 -30.3135 -30.3135 -30.3114 -30.3113 -30.2885 -30.2865
    -8.8728  -7.7586  -7.5632  -7.5632   4.2466   4.2466   4.2677   5.9069
     5.9069   6.4774   6.5481   6.7890   6.7890   6.9410   7.8580   7.9022

          k = 0.1244 0.1244 0.3733 ( 11569 PWs)   bands (ev):

   -63.6812 -63.6762 -63.6727 -63.6727 -30.3587 -30.3587 -30.3528 -30.3350
   -30.3350 -30.3258 -30.3132 -30.3132 -30.3086 -30.3061 -30.2937 -30.2917
    -8.6166  -8.0122  -7.5348  -7.5348   4.4615   4.4615   4.6033   5.5226
     5.5226   5.7593   6.6775   6.6775   6.8753   7.1314   7.6177   7.6257

          k = 0.1244 0.1244-0.4977 ( 11568 PWs)   bands (ev):

   -63.6787 -63.6787 -63.6727 -63.6727 -30.3560 -30.3560 -30.3403 -30.3403
   -30.3380 -30.3380 -30.3132 -30.3132 -30.2999 -30.2999 -30.2995 -30.2995
    -8.3139  -8.3139  -7.5230  -7.5230   4.5946   4.5946   5.1098   5.1098
     5.3336   5.3336   6.6193   6.6193   7.2511   7.2511   7.3700   7.3700

          k = 0.1244 0.2489 0.2489 ( 11561 PWs)   bands (ev):

   -63.6821 -63.6740 -63.6740 -63.6729 -30.3628 -30.3628 -30.3622 -30.3338
   -30.3239 -30.3208 -30.3208 -30.3093 -30.3093 -30.3090 -30.2913 -30.2861
    -8.7135  -7.7072  -7.7072  -7.5564   4.2648   4.2648   4.3157   5.5678
     5.8967   6.2382   6.2382   6.9358   6.9358   6.9649   7.6892   7.8918

          k = 0.1244 0.2489 0.3733 ( 11571 PWs)   bands (ev):

   -63.6802 -63.6758 -63.6737 -63.6731 -30.3634 -30.3621 -30.3586 -30.3377
   -30.3345 -30.3258 -30.3116 -30.3073 -30.3065 -30.3027 -30.2967 -30.2889
    -8.4765  -7.9297  -7.6436  -7.5612   4.2649   4.3352   4.4258   5.2854
     5.4621   5.9160   6.6459   6.9077   6.9881   7.1661   7.4061   7.7238

          k = 0.1244 0.2489-0.4977 ( 11578 PWs)   bands (ev):

   -63.6780 -63.6780 -63.6734 -63.6734 -30.3631 -30.3631 -30.3499 -30.3499
   -30.3310 -30.3310 -30.3061 -30.3061 -30.3035 -30.3035 -30.2951 -30.2951
    -8.2002  -8.2002  -7.5902  -7.5902   4.2922   4.2922   4.7722   4.7722
     5.6237   5.6237   6.9355   6.9355   7.0500   7.0500   7.4500   7.4500

          k = 0.1244 0.3733 0.3733 ( 11574 PWs)   bands (ev):

   -63.6787 -63.6752 -63.6752 -63.6737 -30.3656 -30.3639 -30.3639 -30.3499
   -30.3301 -30.3172 -30.3172 -30.3023 -30.3013 -30.2996 -30.2996 -30.2889
    -8.2713  -7.8179  -7.8179  -7.6167   4.1834   4.2379   4.2379   4.7952
     5.6366   6.3167   6.3167   7.0874   7.1833   7.2142   7.2142   7.6882

          k = 0.1244 0.3733-0.4977 ( 11574 PWs)   bands (ev):

   -63.6769 -63.6769 -63.6745 -63.6745 -30.3665 -30.3665 -30.3592 -30.3592
   -30.3238 -30.3238 -30.3093 -30.3093 -30.2989 -30.2989 -30.2928 -30.2928
    -8.0383  -8.0383  -7.7055  -7.7055   4.1395   4.1395   4.4219   4.4219
     5.9528   5.9528   6.7120   6.7120   7.2415   7.2415   7.5015   7.5015

          k = 0.1244-0.4977-0.4977 ( 11584 PWs)   bands (ev):

   -63.6757 -63.6757 -63.6757 -63.6757 -30.3652 -30.3652 -30.3652 -30.3652
   -30.3164 -30.3164 -30.3164 -30.3164 -30.2941 -30.2941 -30.2941 -30.2941
    -7.8623  -7.8623  -7.8623  -7.8623   4.1872   4.1872   4.1872   4.1872
     6.3267   6.3267   6.3267   6.3267   7.4388   7.4388   7.4388   7.4388

          k = 0.2489 0.2489 0.2489 ( 11572 PWs)   bands (ev):

   -63.6810 -63.6740 -63.6740 -63.6740 -30.3670 -30.3670 -30.3670 -30.3369
   -30.3205 -30.3205 -30.3205 -30.3062 -30.3062 -30.3062 -30.2887 -30.2887
    -8.5667  -7.6761  -7.6761  -7.6761   4.1303   4.1303   4.1303   5.3419
     6.1159   6.1159   6.1159   7.0617   7.0617   7.0617   7.7695   7.7695

          k = 0.2489 0.2489 0.3733 ( 11585 PWs)   bands (ev):

   -63.6794 -63.6756 -63.6739 -63.6739 -30.3709 -30.3709 -30.3668 -30.3504
   -30.3200 -30.3200 -30.3075 -30.3037 -30.3037 -30.3022 -30.2927 -30.2905
    -8.3504  -7.8658  -7.6446  -7.6446   3.9852   3.9852   4.1325   4.7850
     6.0918   6.0918   6.6999   7.0940   7.0940   7.2119   7.5941   7.6127

          k = 0.2489 0.2489-0.4977 ( 11572 PWs)   bands (ev):

   -63.6775 -63.6775 -63.6739 -63.6739 -30.3724 -30.3724 -30.3610 -30.3610
   -30.3198 -30.3198 -30.3028 -30.3028 -30.2975 -30.2975 -30.2970 -30.2970
    -8.1027  -8.1027  -7.6315  -7.6315   3.9232   3.9232   4.3586   4.3586
     6.1005   6.1005   7.0887   7.0887   7.2280   7.2280   7.3978   7.3978

          k = 0.2489 0.3733 0.3733 ( 11569 PWs)   bands (ev):

   -63.6781 -63.6752 -63.6752 -63.6743 -30.3764 -30.3741 -30.3741 -30.3627
   -30.3152 -30.3083 -30.3083 -30.2998 -30.2991 -30.2991 -30.2955 -30.2903
    -8.1687  -7.7839  -7.7839  -7.6630   3.7675   3.8558   3.8558   4.3010
     6.3068   6.6650   6.6650   7.2386   7.2610   7.2610   7.4053   7.6249

          k = 0.2489 0.3733-0.4977 ( 11572 PWs)   bands (ev):

   -63.6766 -63.6766 -63.6747 -63.6747 -30.3776 -30.3776 -30.3712 -30.3712
   -30.3113 -30.3113 -30.3006 -30.3006 -30.2979 -30.2979 -30.2936 -30.2936
    -7.9676  -7.9676  -7.7101  -7.7101   3.7172   3.7172   3.9683   3.9683
     6.5176   6.5176   7.1089   7.1089   7.2862   7.2862   7.4671   7.4671

          k = 0.2489-0.4977-0.4977 ( 11568 PWs)   bands (ev):

   -63.6757 -63.6757 -63.6757 -63.6757 -30.3772 -30.3772 -30.3772 -30.3772
   -30.3052 -30.3052 -30.3052 -30.3052 -30.2941 -30.2941 -30.2941 -30.2941
    -7.8271  -7.8271  -7.8271  -7.8271   3.7339   3.7339   3.7339   3.7339
     6.8532   6.8532   6.8532   6.8532   7.4384   7.4384   7.4384   7.4384

          k = 0.3733 0.3733 0.3733 ( 11566 PWs)   bands (ev):

   -63.6772 -63.6752 -63.6752 -63.6752 -30.3821 -30.3821 -30.3821 -30.3743
   -30.3027 -30.3027 -30.3027 -30.2976 -30.2976 -30.2976 -30.2925 -30.2925
    -8.0258  -7.7494  -7.7494  -7.7494   3.5521   3.5521   3.5521   3.8532
     6.9189   6.9189   6.9189   7.3232   7.3232   7.3232   7.5322   7.5322

          k = 0.3733 0.3733-0.4977 ( 11570 PWs)   bands (ev):

   -63.6762 -63.6762 -63.6752 -63.6752 -30.3850 -30.3850 -30.3813 -30.3813
   -30.3016 -30.3016 -30.2962 -30.2962 -30.2950 -30.2950 -30.2949 -30.2949
    -7.8758  -7.8758  -7.7350  -7.7350   3.4398   3.4398   3.5835   3.5835
     7.0020   7.0020   7.3572   7.3572   7.3597   7.3597   7.4260   7.4260

          k = 0.3733-0.4977-0.4977 ( 11564 PWs)   bands (ev):

   -63.6757 -63.6757 -63.6757 -63.6757 -30.3863 -30.3863 -30.3863 -30.3863
   -30.2970 -30.2970 -30.2970 -30.2970 -30.2940 -30.2940 -30.2940 -30.2940
    -7.7914  -7.7914  -7.7914  -7.7914   3.3915   3.3915   3.3915   3.3915
     7.2771   7.2771   7.2771   7.2771   7.4380   7.4380   7.4380   7.4380

          k =-0.4977-0.4977-0.4977 ( 11656 PWs)   bands (ev):

   -63.6757 -63.6757 -63.6757 -63.6757 -30.3896 -30.3896 -30.3896 -30.3896
   -30.2940 -30.2940 -30.2940 -30.2940 -30.2940 -30.2940 -30.2940 -30.2940
    -7.7765  -7.7765  -7.7765  -7.7765   3.2673   3.2673   3.2673   3.2673
     7.4378   7.4378   7.4378   7.4378   7.4378   7.4378   7.4378   7.4378

     highest occupied level (ev):     8.1321

!    total energy              =    -606.09677813 Ry
     Harris-Foulkes estimate   =    -606.09677813 Ry
     estimated scf accuracy    <          3.7E-13 Ry

     The total energy is the sum of the following terms:

     one-electron contribution =    -290.55114929 Ry
     hartree contribution      =     162.51678618 Ry
     xc contribution           =     -95.35084746 Ry
     ewald contribution        =    -382.71156756 Ry

     convergence has been achieved in  11 iterations

     Forces acting on atoms (cartesian axes, Ry/au):

     atom    1 type  1   force =     0.00000000    0.00000000    0.00000000
     atom    2 type  1   force =     0.00000000    0.00000000    0.00000000
     atom    3 type  1   force =     0.00000000    0.00000000    0.00000000
     atom    4 type  1   force =     0.00000000    0.00000000    0.00000000
     atom    5 type  2   force =     0.00000000    0.00000000    0.00000000
     atom    6 type  2   force =     0.00000000   -0.00000000   -0.00000000
     atom    7 type  2   force =     0.00000000    0.00000000    0.00000000
     atom    8 type  2   force =     0.00000000   -0.00000000    0.00000000

     Total force =     0.000000     Total SCF correction =     0.000000


     Computing stress (Cartesian axis) and pressure

          total   stress  (Ry/bohr**3)                   (kbar)     P=    0.02
   0.00000015   0.00000000   0.00000000          0.02      0.00      0.00
   0.00000000   0.00000015   0.00000000          0.00      0.02      0.00
   0.00000000   0.00000000   0.00000015          0.00      0.00      0.02


     Writing output data file MgO.save/
 
     init_run     :      1.90s CPU      2.25s WALL (       2 calls)
     electrons    :    128.51s CPU    132.98s WALL (       5 calls)
     update_pot   :      1.06s CPU      1.07s WALL (       3 calls)
     forces       :      1.71s CPU      1.72s WALL (       5 calls)
     stress       :      3.98s CPU      4.00s WALL (       5 calls)

     Called by init_run:
     wfcinit      :      1.49s CPU      1.68s WALL (       2 calls)
     potinit      :      0.12s CPU      0.16s WALL (       2 calls)
     hinit0       :      0.19s CPU      0.28s WALL (       2 calls)

     Called by electrons:
     c_bands      :    113.65s CPU    116.54s WALL (      56 calls)
     sum_band     :     14.62s CPU     15.09s WALL (      56 calls)
     v_of_rho     :      0.08s CPU      0.09s WALL (      60 calls)
     mix_rho      :      0.12s CPU      0.12s WALL (      56 calls)

     Called by c_bands:
     init_us_2    :      1.82s CPU      1.93s WALL (    4340 calls)
     cegterg      :    106.87s CPU    109.59s WALL (    1960 calls)

     Called by sum_band:

     Called by *egterg:
     h_psi        :     80.10s CPU     82.71s WALL (    6053 calls)
     g_psi        :      0.60s CPU      0.61s WALL (    4023 calls)
     cdiaghg      :     12.49s CPU     12.55s WALL (    5843 calls)

     Called by h_psi:
     h_psi:pot    :     79.51s CPU     82.11s WALL (    6053 calls)
     h_psi:calbec :      6.72s CPU      6.84s WALL (    6053 calls)
     vloc_psi     :     67.76s CPU     70.21s WALL (    6053 calls)
     add_vuspsi   :      4.97s CPU      5.01s WALL (    6053 calls)

     General routines
     calbec       :      7.57s CPU      7.70s WALL (    6928 calls)
     fft          :      0.11s CPU      0.16s WALL (     219 calls)
     ffts         :      0.02s CPU      0.02s WALL (      56 calls)
     fftw         :     74.36s CPU     77.01s WALL (  401452 calls)
 
     Parallel routines
     fft_scatt_xy :      7.14s CPU      7.41s WALL (  401727 calls)
     fft_scatt_yz :     32.34s CPU     33.66s WALL (  401727 calls)
 
     PWSCF        :   2m17.64s CPU   2m47.37s WALL

 
   This run was terminated on:  11: 5:38  11Sep2020            

=------------------------------------------------------------------------------=
   JOB DONE.
=------------------------------------------------------------------------------=
Starting epilogue... Fri Sep 11 11:05:39 CEST 2020
=== JOB_STATISTICS ===
=== current date     : Fri Sep 11 11:05:39 CEST 2020
= Job-ID             : 1347248.eadm
= Job-Name           : MoS2.phon
= Queue              : devel
= PBS_O_WORKDIR      : /home/hpc/rzku/phyv025h/Exercise_sheet_2/Exercise_1
= Requested resources: ncpus=1,neednodes=1:ppn=40,nodes=1:ppn=40,walltime=01:00:00
= Used resources     : cput=00:54:48,mem=1876664kb,vmem=11365984kb,walltime=00:02:50
= Node list          : e0105
= AccessKey          : 26eac3bf
======================
Power management available, setting all CPUs to ondemand govenor
End of epilogue: Fri Sep 11 11:05:39 CEST 2020
