Starting prologue... Fri Sep 11 11:36:27 CEST 2020
Master node: e0108
Kill all process from other users
Adjust oom killer config
Clearing buffers and caches on the nodes.
Power management available, enabling ondemand governor
End of prologue: Fri Sep 11 11:36:36 CEST 2020
/home/hpc/rzku/phyv025h/Exercise_sheet_2/Exercise_1

     Program PWSCF v.6.4.1 starts on 11Sep2020 at 11:36:46 

     This program is part of the open-source Quantum ESPRESSO suite
     for quantum simulation of materials; please cite
         "P. Giannozzi et al., J. Phys.:Condens. Matter 21 395502 (2009);
         "P. Giannozzi et al., J. Phys.:Condens. Matter 29 465901 (2017);
          URL http://www.quantum-espresso.org", 
     in publications or presentations arising from this work. More details at
     http://www.quantum-espresso.org/quote

     Parallel version (MPI & OpenMP), running on      20 processor cores
     Number of MPI processes:                20
     Threads/MPI process:                     1

     MPI processes distributed on     1 nodes
     R & G space division:  proc/nbgrp/npool/nimage =      20
     Reading input from /home/hpc/rzku/phyv025h/Exercise_sheet_2/Exercise_1/MgO_d1.in

     Current dimensions of program PWSCF are:
     Max number of different atomic species (ntypx) = 10
     Max number of k-points (npk) =  40000
     Max angular momentum in pseudopotentials (lmaxx) =  3

     IMPORTANT: XC functional enforced from input :
     Exchange-correlation      = PBE ( 1  4  3  4 0 0)
     Any further DFT definition will be discarded
     Please, verify this is what you really want


     Subspace diagonalization in iterative solution of the eigenvalue problem:
     a serial algorithm will be used

     Found symmetry operation: I + ( -0.5000 -0.5000  0.0000)
     This is a supercell, fractional translations are disabled
     Message from routine setup:
     DEPRECATED: symmetry with ibrav=0, use correct ibrav instead
 
     Parallelization info
     --------------------
     sticks:   dense  smooth     PW     G-vecs:    dense   smooth      PW
     Min         110     110     31                 3922     3922     591
     Max         111     111     32                 3927     3927     594
     Sum        2217    2217    633                78517    78517   11837
 


     bravais-lattice index     =            0
     lattice parameter (alat)  =       7.9557  a.u.
     unit-cell volume          =     503.5503 (a.u.)^3
     number of atoms/cell      =            8
     number of atomic types    =            2
     number of electrons       =        64.00
     number of Kohn-Sham states=           32
     kinetic-energy cutoff     =     110.0000  Ry
     charge density cutoff     =     440.0000  Ry
     convergence threshold     =      1.0E-10
     mixing beta               =       0.7000
     number of iterations used =            8  plain     mixing
     Exchange-correlation      = PBE ( 1  4  3  4 0 0)
     nstep                     =           50


     celldm(1)=   7.955747  celldm(2)=   0.000000  celldm(3)=   0.000000
     celldm(4)=   0.000000  celldm(5)=   0.000000  celldm(6)=   0.000000

     crystal axes: (cart. coord. in units of alat)
               a(1) = (   1.000000   0.000000   0.000000 )  
               a(2) = (   0.000000   1.000000   0.000000 )  
               a(3) = (   0.000000   0.000000   1.000000 )  

     reciprocal axes: (cart. coord. in units 2 pi/alat)
               b(1) = (  1.000000  0.000000  0.000000 )  
               b(2) = (  0.000000  1.000000  0.000000 )  
               b(3) = (  0.000000  0.000000  1.000000 )  


     PseudoPot. # 1 for Mg read from file:
     ./Mg.nc.UPF
     MD5 check sum: 4c04d8c6e0476e83eaecaf72fa8acc4d
     Pseudo is Norm-conserving, Zval = 10.0
     Generated using ONCVPSP code by D. R. Hamann
     Using radial grid of 1510 points,  4 beta functions with: 
                l(1) =   0
                l(2) =   0
                l(3) =   1
                l(4) =   1

     PseudoPot. # 2 for O  read from file:
     ./O.nc.UPF
     MD5 check sum: 3e3f909f7470e8921608ab6b1f57bbae
     Pseudo is Norm-conserving + core correction, Zval =  6.0
     Generated using ONCVPSP code by D. R. Hamann
     Using radial grid of  936 points,  5 beta functions with: 
                l(1) =   0
                l(2) =   0
                l(3) =   1
                l(4) =   1
                l(5) =   2

     atomic species   valence    mass     pseudopotential
        Mg            10.00    24.30000     Mg( 1.00)
        O              6.00    16.00000     O ( 1.00)

     48 Sym. Ops., with inversion, found



   Cartesian axes

     site n.     atom                  positions (alat units)
         1           Mg  tau(   1) = (   0.0000000   0.0000000   0.0000000  )
         2           Mg  tau(   2) = (   0.5000000   0.5000000   0.0000000  )
         3           Mg  tau(   3) = (   0.5000000   0.0000000   0.5000000  )
         4           Mg  tau(   4) = (   0.0000000   0.5000000   0.5000000  )
         5           O   tau(   5) = (   0.5000000   0.0000000   0.0000000  )
         6           O   tau(   6) = (   0.0000000   0.5000000   0.0000000  )
         7           O   tau(   7) = (   0.0000000   0.0000000   0.5000000  )
         8           O   tau(   8) = (   0.5000000   0.5000000   0.5000000  )

     number of k points=    35
                       cart. coord. in units 2pi/alat
        k(    1) = (   0.0000000   0.0000000   0.0000000), wk =   0.0039062
        k(    2) = (   0.0000000   0.0000000   0.1250000), wk =   0.0234375
        k(    3) = (   0.0000000   0.0000000   0.2500000), wk =   0.0234375
        k(    4) = (   0.0000000   0.0000000   0.3750000), wk =   0.0234375
        k(    5) = (   0.0000000   0.0000000  -0.5000000), wk =   0.0117188
        k(    6) = (   0.0000000   0.1250000   0.1250000), wk =   0.0468750
        k(    7) = (   0.0000000   0.1250000   0.2500000), wk =   0.0937500
        k(    8) = (   0.0000000   0.1250000   0.3750000), wk =   0.0937500
        k(    9) = (   0.0000000   0.1250000  -0.5000000), wk =   0.0468750
        k(   10) = (   0.0000000   0.2500000   0.2500000), wk =   0.0468750
        k(   11) = (   0.0000000   0.2500000   0.3750000), wk =   0.0937500
        k(   12) = (   0.0000000   0.2500000  -0.5000000), wk =   0.0468750
        k(   13) = (   0.0000000   0.3750000   0.3750000), wk =   0.0468750
        k(   14) = (   0.0000000   0.3750000  -0.5000000), wk =   0.0468750
        k(   15) = (   0.0000000  -0.5000000  -0.5000000), wk =   0.0117188
        k(   16) = (   0.1250000   0.1250000   0.1250000), wk =   0.0312500
        k(   17) = (   0.1250000   0.1250000   0.2500000), wk =   0.0937500
        k(   18) = (   0.1250000   0.1250000   0.3750000), wk =   0.0937500
        k(   19) = (   0.1250000   0.1250000  -0.5000000), wk =   0.0468750
        k(   20) = (   0.1250000   0.2500000   0.2500000), wk =   0.0937500
        k(   21) = (   0.1250000   0.2500000   0.3750000), wk =   0.1875000
        k(   22) = (   0.1250000   0.2500000  -0.5000000), wk =   0.0937500
        k(   23) = (   0.1250000   0.3750000   0.3750000), wk =   0.0937500
        k(   24) = (   0.1250000   0.3750000  -0.5000000), wk =   0.0937500
        k(   25) = (   0.1250000  -0.5000000  -0.5000000), wk =   0.0234375
        k(   26) = (   0.2500000   0.2500000   0.2500000), wk =   0.0312500
        k(   27) = (   0.2500000   0.2500000   0.3750000), wk =   0.0937500
        k(   28) = (   0.2500000   0.2500000  -0.5000000), wk =   0.0468750
        k(   29) = (   0.2500000   0.3750000   0.3750000), wk =   0.0937500
        k(   30) = (   0.2500000   0.3750000  -0.5000000), wk =   0.0937500
        k(   31) = (   0.2500000  -0.5000000  -0.5000000), wk =   0.0234375
        k(   32) = (   0.3750000   0.3750000   0.3750000), wk =   0.0312500
        k(   33) = (   0.3750000   0.3750000  -0.5000000), wk =   0.0468750
        k(   34) = (   0.3750000  -0.5000000  -0.5000000), wk =   0.0234375
        k(   35) = (  -0.5000000  -0.5000000  -0.5000000), wk =   0.0039062

     Dense  grid:    78517 G-vectors     FFT dimensions: (  54,  54,  54)

     Estimated max dynamical RAM per process >      20.39 MB

     Estimated total dynamical RAM >     407.74 MB

     Initial potential from superposition of free atoms

     starting charge   63.99678, renormalised to   64.00000
     Starting wfcs are   36 randomized atomic wfcs

     total cpu time spent up to now is        1.7 secs

     Self-consistent Calculation

     iteration #  1     ecut=   110.00 Ry     beta= 0.70
     Davidson diagonalization with overlap
     ethr =  1.00E-02,  avg # of iterations =  2.0

     total cpu time spent up to now is        3.7 secs

     total energy              =    -607.74547147 Ry
     Harris-Foulkes estimate   =    -608.86081758 Ry
     estimated scf accuracy    <       1.54998590 Ry

     iteration #  2     ecut=   110.00 Ry     beta= 0.70
     Davidson diagonalization with overlap
     ethr =  2.42E-03,  avg # of iterations =  2.9

     total cpu time spent up to now is        5.9 secs

     total energy              =    -608.13877529 Ry
     Harris-Foulkes estimate   =    -608.79806883 Ry
     estimated scf accuracy    <       1.35545137 Ry

     iteration #  3     ecut=   110.00 Ry     beta= 0.70
     Davidson diagonalization with overlap
     ethr =  2.12E-03,  avg # of iterations =  2.0

     total cpu time spent up to now is        8.0 secs

     total energy              =    -608.40682053 Ry
     Harris-Foulkes estimate   =    -608.40738553 Ry
     estimated scf accuracy    <       0.00635709 Ry

     iteration #  4     ecut=   110.00 Ry     beta= 0.70
     Davidson diagonalization with overlap
     ethr =  9.93E-06,  avg # of iterations =  2.0

     total cpu time spent up to now is       10.1 secs

     total energy              =    -608.40819623 Ry
     Harris-Foulkes estimate   =    -608.40824300 Ry
     estimated scf accuracy    <       0.00011170 Ry

     iteration #  5     ecut=   110.00 Ry     beta= 0.70
     Davidson diagonalization with overlap
     ethr =  1.75E-07,  avg # of iterations =  1.3

     total cpu time spent up to now is       11.7 secs

     total energy              =    -608.40820126 Ry
     Harris-Foulkes estimate   =    -608.40820169 Ry
     estimated scf accuracy    <       0.00001244 Ry

     iteration #  6     ecut=   110.00 Ry     beta= 0.70
     Davidson diagonalization with overlap
     ethr =  1.94E-08,  avg # of iterations =  2.0

     total cpu time spent up to now is       14.1 secs

     total energy              =    -608.40820345 Ry
     Harris-Foulkes estimate   =    -608.40820398 Ry
     estimated scf accuracy    <       0.00000146 Ry

     iteration #  7     ecut=   110.00 Ry     beta= 0.70
     Davidson diagonalization with overlap
     ethr =  2.27E-09,  avg # of iterations =  2.0

     total cpu time spent up to now is       15.9 secs

     total energy              =    -608.40820334 Ry
     Harris-Foulkes estimate   =    -608.40820353 Ry
     estimated scf accuracy    <       0.00000041 Ry

     iteration #  8     ecut=   110.00 Ry     beta= 0.70
     Davidson diagonalization with overlap
     ethr =  6.40E-10,  avg # of iterations =  2.0

     total cpu time spent up to now is       18.3 secs

     total energy              =    -608.40820340 Ry
     Harris-Foulkes estimate   =    -608.40820341 Ry
     estimated scf accuracy    <       0.00000002 Ry

     iteration #  9     ecut=   110.00 Ry     beta= 0.70
     Davidson diagonalization with overlap
     ethr =  3.18E-11,  avg # of iterations =  2.0

     total cpu time spent up to now is       20.7 secs

     total energy              =    -608.40820340 Ry
     Harris-Foulkes estimate   =    -608.40820340 Ry
     estimated scf accuracy    <          2.6E-09 Ry

     iteration # 10     ecut=   110.00 Ry     beta= 0.70
     Davidson diagonalization with overlap
     ethr =  4.11E-12,  avg # of iterations =  2.0

     total cpu time spent up to now is       23.0 secs

     total energy              =    -608.40820340 Ry
     Harris-Foulkes estimate   =    -608.40820340 Ry
     estimated scf accuracy    <          1.0E-10 Ry

     iteration # 11     ecut=   110.00 Ry     beta= 0.70
     Davidson diagonalization with overlap
     ethr =  1.62E-13,  avg # of iterations =  2.0

     total cpu time spent up to now is       25.1 secs

     End of self-consistent calculation

          k = 0.0000 0.0000 0.0000 (  9795 PWs)   bands (ev):

   -64.2785 -64.2669 -64.2669 -64.2669 -31.1039 -31.1039 -31.1039 -31.0599
   -31.0599 -31.0599 -31.0599 -31.0599 -31.0599 -31.0312 -31.0312 -31.0312
    -9.1234  -7.5782  -7.5782  -7.5782   4.0275   4.0275   4.0275   6.7361
     6.7361   6.7361   6.7361   6.7361   6.7361   8.0718   8.0718   8.0718

          k = 0.0000 0.0000 0.1250 (  9811 PWs)   bands (ev):

   -64.2780 -64.2674 -64.2669 -64.2669 -31.1023 -31.1023 -31.1015 -31.0615
   -31.0615 -31.0602 -31.0602 -31.0588 -31.0588 -31.0343 -31.0323 -31.0323
    -9.0660  -7.6378  -7.5689  -7.5689   4.1027   4.1027   4.1154   6.5861
     6.5861   6.6718   6.6718   6.7790   6.7790   7.7635   8.0108   8.0108

          k = 0.0000 0.0000 0.2500 (  9807 PWs)   bands (ev):

   -64.2768 -64.2686 -64.2669 -64.2669 -31.0975 -31.0975 -31.0945 -31.0663
   -31.0663 -31.0609 -31.0609 -31.0556 -31.0556 -31.0431 -31.0354 -31.0354
    -8.9019  -7.8076  -7.5465  -7.5465   4.3247   4.3247   4.3832   6.1924
     6.1924   6.5207   6.5207   6.9038   6.9038   7.0494   7.8426   7.8426

          k = 0.0000 0.0000 0.3750 (  9814 PWs)   bands (ev):

   -64.2749 -64.2705 -64.2669 -64.2669 -31.0903 -31.0903 -31.0835 -31.0734
   -31.0734 -31.0616 -31.0616 -31.0557 -31.0510 -31.0510 -31.0400 -31.0400
    -8.6542  -8.0614  -7.5240  -7.5240   4.6810   4.6810   4.8351   5.6754
     5.6754   6.2272   6.3749   6.3749   7.0988   7.0988   7.6048   7.6048

          k = 0.0000 0.0000-0.5000 (  9890 PWs)   bands (ev):

   -64.2727 -64.2727 -64.2669 -64.2669 -31.0818 -31.0818 -31.0818 -31.0818
   -31.0700 -31.0700 -31.0619 -31.0619 -31.0455 -31.0455 -31.0455 -31.0455
    -8.3591  -8.3591  -7.5146  -7.5146   5.1463   5.1463   5.1463   5.1463
     5.4621   5.4621   6.3160   6.3160   7.3430   7.3430   7.3430   7.3430

          k = 0.0000 0.1250 0.1250 (  9811 PWs)   bands (ev):

   -64.2776 -64.2674 -64.2674 -64.2669 -31.1006 -31.1003 -31.1003 -31.0655
   -31.0604 -31.0604 -31.0588 -31.0588 -31.0580 -31.0391 -31.0334 -31.0315
    -9.0099  -7.6258  -7.6258  -7.5620   4.1750   4.1750   4.1774   6.2874
     6.6316   6.6316   6.7261   6.7261   6.7895   7.4344   7.9454   8.0268

          k = 0.0000 0.1250 0.2500 (  9819 PWs)   bands (ev):

   -64.2764 -64.2686 -64.2673 -64.2670 -31.0967 -31.0959 -31.0945 -31.0714
   -31.0651 -31.0589 -31.0572 -31.0569 -31.0551 -31.0485 -31.0365 -31.0333
    -8.8493  -7.7884  -7.5956  -7.5465   4.3488   4.3976   4.4001   5.8495
     6.2444   6.6088   6.7587   6.7644   6.7770   6.8802   7.7654   7.9025

          k = 0.0000 0.1250 0.3750 (  9811 PWs)   bands (ev):

   -64.2746 -64.2703 -64.2672 -64.2671 -31.0914 -31.0888 -31.0852 -31.0781
   -31.0721 -31.0605 -31.0586 -31.0572 -31.0525 -31.0496 -31.0413 -31.0377
    -8.6075  -8.0325  -7.5613  -7.5346   4.6228   4.7508   4.7915   5.3952
     5.7345   6.0351   6.5173   6.6301   6.9720   7.1111   7.5113   7.6675

          k = 0.0000 0.1250-0.5000 (  9828 PWs)   bands (ev):

   -64.2725 -64.2725 -64.2671 -64.2671 -31.0850 -31.0850 -31.0804 -31.0804
   -31.0734 -31.0734 -31.0580 -31.0580 -31.0469 -31.0468 -31.0434 -31.0434
    -8.3205  -8.3205  -7.5383  -7.5383   4.9780   4.9780   5.2116   5.2116
     5.3476   5.3476   6.5235   6.5235   7.2321   7.2321   7.3868   7.3868

          k = 0.0000 0.2500 0.2500 (  9769 PWs)   bands (ev):

   -64.2753 -64.2684 -64.2684 -64.2672 -31.0941 -31.0941 -31.0913 -31.0786
   -31.0617 -31.0617 -31.0586 -31.0536 -31.0536 -31.0529 -31.0399 -31.0327
    -8.6994  -7.7371  -7.7371  -7.5507   4.4510   4.4510   4.6124   5.3839
     6.2167   6.3961   6.3961   6.8410   6.8410   6.9416   7.5538   7.8946

          k = 0.0000 0.2500 0.3750 (  9818 PWs)   bands (ev):

   -64.2737 -64.2700 -64.2681 -64.2674 -31.0928 -31.0887 -31.0850 -31.0845
   -31.0698 -31.0685 -31.0567 -31.0519 -31.0509 -31.0468 -31.0449 -31.0351
    -8.4754  -7.9532  -7.6710  -7.5694   4.5454   4.6851   4.9560   4.9899
     5.6101   5.9075   6.6340   6.8433   6.9659   7.1493   7.2571   7.7355

          k = 0.0000 0.2500-0.5000 (  9844 PWs)   bands (ev):

   -64.2718 -64.2718 -64.2678 -64.2678 -31.0898 -31.0898 -31.0804 -31.0804
   -31.0765 -31.0765 -31.0508 -31.0508 -31.0507 -31.0507 -31.0402 -31.0402
    -8.2127  -8.2127  -7.6104  -7.6104   4.7131   4.7131   5.0778   5.0778
     5.4029   5.4029   6.9024   6.9024   6.9336   6.9336   7.4673   7.4673

          k = 0.0000 0.3750 0.3750 (  9827 PWs)   bands (ev):

   -64.2724 -64.2694 -64.2694 -64.2680 -31.0917 -31.0917 -31.0902 -31.0794
   -31.0781 -31.0630 -31.0630 -31.0503 -31.0463 -31.0446 -31.0446 -31.0354
    -8.2808  -7.8436  -7.8436  -7.6344   4.5826   4.5826   4.6965   5.1544
     5.2834   6.1803   6.1803   6.9053   7.1684   7.2024   7.2024   7.6874

          k = 0.0000 0.3750-0.5000 (  9802 PWs)   bands (ev):

   -64.2709 -64.2709 -64.2687 -64.2687 -31.0924 -31.0924 -31.0871 -31.0871
   -31.0706 -31.0706 -31.0566 -31.0566 -31.0443 -31.0443 -31.0387 -31.0387
    -8.0577  -8.0577  -7.7297  -7.7297   4.5659   4.5659   4.7899   4.7899
     5.7065   5.7065   6.5267   6.5267   7.2296   7.2296   7.5014   7.5014

          k = 0.0000-0.5000-0.5000 (  9748 PWs)   bands (ev):

   -64.2698 -64.2698 -64.2698 -64.2698 -31.0915 -31.0915 -31.0915 -31.0915
   -31.0636 -31.0636 -31.0636 -31.0636 -31.0401 -31.0401 -31.0401 -31.0401
    -7.8863  -7.8863  -7.8863  -7.8863   4.5965   4.5965   4.5965   4.5965
     6.0958   6.0958   6.0958   6.0958   7.4319   7.4319   7.4319   7.4319

          k = 0.1250 0.1250 0.1250 (  9819 PWs)   bands (ev):

   -64.2772 -64.2674 -64.2674 -64.2674 -31.0992 -31.0992 -31.0992 -31.0636
   -31.0636 -31.0636 -31.0570 -31.0570 -31.0570 -31.0439 -31.0325 -31.0325
    -8.9549  -7.6161  -7.6161  -7.6161   4.2294   4.2294   4.2294   6.3651
     6.3651   6.3651   6.8297   6.8297   6.8297   7.1272   7.9711   7.9711

          k = 0.1250 0.1250 0.2500 (  9822 PWs)   bands (ev):

   -64.2760 -64.2685 -64.2673 -64.2673 -31.0962 -31.0962 -31.0948 -31.0685
   -31.0685 -31.0587 -31.0558 -31.0558 -31.0541 -31.0536 -31.0353 -31.0337
    -8.7979  -7.7712  -7.5926  -7.5926   4.3828   4.3828   4.4020   5.9770
     5.9770   6.5075   6.5804   6.8068   6.8068   6.9466   7.8170   7.8606

          k = 0.1250 0.1250 0.3750 (  9809 PWs)   bands (ev):

   -64.2743 -64.2702 -64.2673 -64.2673 -31.0923 -31.0923 -31.0873 -31.0733
   -31.0733 -31.0653 -31.0555 -31.0555 -31.0518 -31.0497 -31.0396 -31.0380
    -8.5622  -8.0055  -7.5689  -7.5689   4.5955   4.5955   4.7247   5.6103
     5.6103   5.8257   6.7094   6.7094   6.8913   7.1287   7.5941   7.5981

          k = 0.1250 0.1250-0.5000 (  9844 PWs)   bands (ev):

   -64.2723 -64.2723 -64.2673 -64.2673 -31.0902 -31.0902 -31.0771 -31.0771
   -31.0757 -31.0757 -31.0555 -31.0555 -31.0447 -31.0447 -31.0444 -31.0444
    -8.2836  -8.2836  -7.5590  -7.5590   4.7291   4.7291   5.2080   5.2081
     5.4256   5.4256   6.6582   6.6582   7.2479   7.2479   7.3559   7.3559

          k = 0.1250 0.2500 0.2500 (  9801 PWs)   bands (ev):

   -64.2750 -64.2684 -64.2684 -64.2675 -31.0956 -31.0956 -31.0952 -31.0723
   -31.0638 -31.0617 -31.0617 -31.0524 -31.0524 -31.0521 -31.0376 -31.0334
    -8.6520  -7.7264  -7.7264  -7.5887   4.4051   4.4051   4.4553   5.6580
     5.9567   6.2901   6.2901   6.9471   6.9471   6.9737   7.6599   7.8534

          k = 0.1250 0.2500 0.3750 (  9792 PWs)   bands (ev):

   -64.2735 -64.2699 -64.2682 -64.2677 -31.0961 -31.0950 -31.0920 -31.0750
   -31.0728 -31.0658 -31.0543 -31.0508 -31.0501 -31.0470 -31.0420 -31.0358
    -8.4346  -7.9320  -7.6704  -7.5954   4.4138   4.4838   4.5611   5.3773
     5.5535   5.9832   6.6767   6.9272   7.0005   7.1670   7.3943   7.6969

          k = 0.1250 0.2500-0.5000 (  9822 PWs)   bands (ev):

   -64.2717 -64.2717 -64.2679 -64.2679 -31.0957 -31.0957 -31.0849 -31.0849
   -31.0700 -31.0700 -31.0498 -31.0498 -31.0476 -31.0476 -31.0408 -31.0408
    -8.1809  -8.1809  -7.6227  -7.6227   4.4458   4.4458   4.8907   4.8907
     5.7042   5.7042   6.9549   6.9549   7.0591   7.0591   7.4376   7.4376

          k = 0.1250 0.3750 0.3750 (  9808 PWs)   bands (ev):

   -64.2723 -64.2694 -64.2694 -64.2682 -31.0978 -31.0963 -31.0963 -31.0848
   -31.0693 -31.0588 -31.0588 -31.0466 -31.0459 -31.0445 -31.0445 -31.0358
    -8.2475  -7.8318  -7.8318  -7.6483   4.3450   4.3898   4.3898   4.9146
     5.7187   6.3650   6.3650   7.0950   7.1868   7.2179   7.2179   7.6663

          k = 0.1250 0.3750-0.5000 (  9794 PWs)   bands (ev):

   -64.2708 -64.2708 -64.2688 -64.2688 -31.0984 -31.0984 -31.0924 -31.0924
   -31.0642 -31.0642 -31.0524 -31.0524 -31.0440 -31.0440 -31.0390 -31.0390
    -8.0344  -8.0344  -7.7302  -7.7302   4.3021   4.3021   4.5631   4.5631
     6.0194   6.0194   6.7404   6.7404   7.2444   7.2444   7.4905   7.4905

          k = 0.1250-0.5000-0.5000 (  9796 PWs)   bands (ev):

   -64.2698 -64.2698 -64.2698 -64.2698 -31.0973 -31.0973 -31.0973 -31.0973
   -31.0581 -31.0581 -31.0581 -31.0581 -31.0400 -31.0400 -31.0400 -31.0400
    -7.8742  -7.8742  -7.8742  -7.8742   4.3452   4.3452   4.3452   4.3452
     6.3754   6.3754   6.3754   6.3754   7.4319   7.4319   7.4319   7.4319

          k = 0.2500 0.2500 0.2500 (  9825 PWs)   bands (ev):

   -64.2741 -64.2684 -64.2684 -64.2684 -31.0990 -31.0990 -31.0990 -31.0743
   -31.0615 -31.0615 -31.0615 -31.0499 -31.0499 -31.0499 -31.0356 -31.0356
    -8.5179  -7.7003  -7.7002  -7.7002   4.2840   4.2840   4.2840   5.4313
     6.1771   6.1771   6.1771   7.0666   7.0666   7.0666   7.7386   7.7386

          k = 0.2500 0.2500 0.3750 (  9809 PWs)   bands (ev):

   -64.2728 -64.2697 -64.2683 -64.2683 -31.1020 -31.1020 -31.0987 -31.0852
   -31.0611 -31.0611 -31.0509 -31.0479 -31.0479 -31.0466 -31.0389 -31.0371
    -8.3203  -7.8757  -7.6739  -7.6739   4.1531   4.1531   4.2877   4.9045
     6.1531   6.1531   6.7320   7.1016   7.1016   7.2102   7.5732   7.5941

          k = 0.2500 0.2500-0.5000 (  9786 PWs)   bands (ev):

   -64.2712 -64.2712 -64.2683 -64.2683 -31.1032 -31.1032 -31.0939 -31.0939
   -31.0609 -31.0609 -31.0471 -31.0471 -31.0427 -31.0427 -31.0424 -31.0424
    -8.0935  -8.0935  -7.6629  -7.6629   4.0973   4.0973   4.5015   4.5015
     6.1602   6.1602   7.0994   7.0994   7.2324   7.2324   7.3872   7.3872

          k = 0.2500 0.3750 0.3750 (  9834 PWs)   bands (ev):

   -64.2718 -64.2694 -64.2694 -64.2686 -31.1064 -31.1045 -31.1045 -31.0951
   -31.0572 -31.0516 -31.0516 -31.0447 -31.0441 -31.0441 -31.0412 -31.0369
    -8.1554  -7.8032  -7.8032  -7.6931   3.9502   4.0306   4.0306   4.4482
     6.3584   6.6986   6.6986   7.2400   7.2612   7.2612   7.3973   7.6069

          k = 0.2500 0.3750-0.5000 (  9810 PWs)   bands (ev):

   -64.2706 -64.2706 -64.2690 -64.2690 -31.1074 -31.1074 -31.1021 -31.1021
   -31.0540 -31.0540 -31.0453 -31.0453 -31.0432 -31.0432 -31.0396 -31.0396
    -7.9719  -7.9719  -7.7370  -7.7370   3.9026   3.9026   4.1356   4.1356
     6.5583   6.5583   7.1185   7.1185   7.2870   7.2870   7.4579   7.4579

          k = 0.2500-0.5000-0.5000 (  9780 PWs)   bands (ev):

   -64.2698 -64.2698 -64.2698 -64.2698 -31.1070 -31.1070 -31.1070 -31.1070
   -31.0491 -31.0491 -31.0491 -31.0491 -31.0400 -31.0400 -31.0400 -31.0400
    -7.8446  -7.8446  -7.8446  -7.8446   3.9168   3.9168   3.9168   3.9168
     6.8768   6.8768   6.8768   6.8768   7.4321   7.4321   7.4321   7.4321

          k = 0.3750 0.3750 0.3750 (  9811 PWs)   bands (ev):

   -64.2710 -64.2694 -64.2694 -64.2694 -31.1109 -31.1109 -31.1109 -31.1045
   -31.0471 -31.0471 -31.0471 -31.0429 -31.0429 -31.0429 -31.0387 -31.0387
    -8.0266  -7.7743  -7.7743  -7.7743   3.7457   3.7457   3.7457   4.0267
     6.9411   6.9411   6.9411   7.3210   7.3210   7.3210   7.5196   7.5196

          k = 0.3750 0.3750-0.5000 (  9822 PWs)   bands (ev):

   -64.2702 -64.2702 -64.2694 -64.2694 -31.1133 -31.1133 -31.1102 -31.1102
   -31.0461 -31.0461 -31.0418 -31.0418 -31.0408 -31.0408 -31.0407 -31.0407
    -7.8906  -7.8906  -7.7623  -7.7623   3.6406   3.6406   3.7739   3.7739
     7.0195   7.0195   7.3549   7.3549   7.3585   7.3585   7.4190   7.4190

          k = 0.3750-0.5000-0.5000 (  9812 PWs)   bands (ev):

   -64.2698 -64.2698 -64.2698 -64.2698 -31.1143 -31.1143 -31.1143 -31.1143
   -31.0424 -31.0424 -31.0424 -31.0424 -31.0400 -31.0400 -31.0400 -31.0400
    -7.8147  -7.8147  -7.8147  -7.8147   3.5942   3.5942   3.5942   3.5942
     7.2797   7.2797   7.2797   7.2797   7.4322   7.4322   7.4322   7.4322

          k =-0.5000-0.5000-0.5000 (  9808 PWs)   bands (ev):

   -64.2698 -64.2698 -64.2698 -64.2698 -31.1170 -31.1170 -31.1170 -31.1170
   -31.0400 -31.0400 -31.0400 -31.0400 -31.0400 -31.0400 -31.0400 -31.0400
    -7.8022  -7.8022  -7.8022  -7.8022   3.4774   3.4774   3.4774   3.4774
     7.4323   7.4323   7.4323   7.4323   7.4323   7.4323   7.4323   7.4323

     highest occupied level (ev):     8.0718

!    total energy              =    -608.40820340 Ry
     Harris-Foulkes estimate   =    -608.40820340 Ry
     estimated scf accuracy    <          1.4E-12 Ry

     The total energy is the sum of the following terms:

     one-electron contribution =    -297.14552195 Ry
     hartree contribution      =     165.98049891 Ry
     xc contribution           =     -97.99070468 Ry
     ewald contribution        =    -379.25247568 Ry

     convergence has been achieved in  11 iterations

     Forces acting on atoms (cartesian axes, Ry/au):

     atom    1 type  1   force =     0.00000000    0.00000000    0.00000000
     atom    2 type  1   force =     0.00000000    0.00000000    0.00000000
     atom    3 type  1   force =     0.00000000    0.00000000    0.00000000
     atom    4 type  1   force =     0.00000000    0.00000000    0.00000000
     atom    5 type  2   force =     0.00000000    0.00000000   -0.00000000
     atom    6 type  2   force =     0.00000000    0.00000000    0.00000000
     atom    7 type  2   force =     0.00000000    0.00000000    0.00000000
     atom    8 type  2   force =     0.00000000    0.00000000   -0.00000000

     Total force =     0.000000     Total SCF correction =     0.000000


     Computing stress (Cartesian axis) and pressure

          total   stress  (Ry/bohr**3)                   (kbar)     P=   48.38
   0.00032887   0.00000000   0.00000000         48.38      0.00      0.00
   0.00000000   0.00032887   0.00000000          0.00     48.38      0.00
   0.00000000   0.00000000   0.00032887          0.00      0.00     48.38


     number of scf cycles    =   2
     number of bfgs steps    =   1

     enthalpy old            =    -606.9172906983 Ry
     enthalpy new            =    -608.4082033998 Ry

     CASE: enthalpy_new < enthalpy_old


     WARNING: unexpected behaviour in update_inverse_hessian
              resetting bfgs history

     small trust_radius: resetting bfgs history

     new trust radius        =       0.0001000000 bohr
     new conv_thr            =            1.0E-12 Ry

     new unit-cell volume =    503.58400 a.u.^3 (    74.62345 Ang^3 )
     density =      3.58706 g/cm^3

CELL_PARAMETERS (angstrom)
   4.210093806   0.000000000   0.000000000
   0.000000000   4.210093806   0.000000000
   0.000000000   0.000000000   4.210093806

ATOMIC_POSITIONS (crystal)
Mg       0.000000000   0.000000000   0.000000000
Mg       0.500000000   0.500000000   0.000000000
Mg       0.500000000   0.000000000   0.500000000
Mg       0.000000000   0.500000000   0.500000000
O        0.500000000   0.000000000  -0.000000000
O        0.000000000   0.500000000   0.000000000
O        0.000000000   0.000000000   0.500000000
O        0.500000000   0.500000000   0.500000000



     Writing output data file MgO.save/
     NEW-OLD atomic charge density approx. for the potential
     extrapolated charge   64.00428, renormalised to   64.00000

     total cpu time spent up to now is       26.6 secs

     Self-consistent Calculation

     iteration #  1     ecut=   110.00 Ry     beta= 0.70
     Davidson diagonalization with overlap
     ethr =  1.00E-06,  avg # of iterations =  1.0

     Threshold (ethr) on eigenvalues was too large:
     Diagonalizing with lowered threshold

     Davidson diagonalization with overlap
     ethr =  5.31E-10,  avg # of iterations =  1.0

     total cpu time spent up to now is       29.8 secs

     total energy              =    -608.40821383 Ry
     Harris-Foulkes estimate   =    -608.39412986 Ry
     estimated scf accuracy    <       0.00000034 Ry

     iteration #  2     ecut=   110.00 Ry     beta= 0.70
     Davidson diagonalization with overlap
     ethr =  5.28E-10,  avg # of iterations =  3.0

     total cpu time spent up to now is       33.0 secs

     total energy              =    -608.40821443 Ry
     Harris-Foulkes estimate   =    -608.40821477 Ry
     estimated scf accuracy    <       0.00000091 Ry

     iteration #  3     ecut=   110.00 Ry     beta= 0.70
     Davidson diagonalization with overlap
     ethr =  5.28E-10,  avg # of iterations =  2.0

     total cpu time spent up to now is       35.0 secs

     total energy              =    -608.40821448 Ry
     Harris-Foulkes estimate   =    -608.40821451 Ry
     estimated scf accuracy    <       0.00000012 Ry

     iteration #  4     ecut=   110.00 Ry     beta= 0.70
     Davidson diagonalization with overlap
     ethr =  1.94E-10,  avg # of iterations =  1.0

     total cpu time spent up to now is       36.6 secs

     total energy              =    -608.40821445 Ry
     Harris-Foulkes estimate   =    -608.40821448 Ry
     estimated scf accuracy    <       0.00000006 Ry

     iteration #  5     ecut=   110.00 Ry     beta= 0.70
     Davidson diagonalization with overlap
     ethr =  1.01E-10,  avg # of iterations =  2.0

     total cpu time spent up to now is       38.7 secs

     total energy              =    -608.40821446 Ry
     Harris-Foulkes estimate   =    -608.40821446 Ry
     estimated scf accuracy    <          4.4E-10 Ry

     iteration #  6     ecut=   110.00 Ry     beta= 0.70
     Davidson diagonalization with overlap
     ethr =  6.91E-13,  avg # of iterations =  2.0

     total cpu time spent up to now is       40.8 secs

     total energy              =    -608.40821446 Ry
     Harris-Foulkes estimate   =    -608.40821446 Ry
     estimated scf accuracy    <          5.6E-12 Ry

     iteration #  7     ecut=   110.00 Ry     beta= 0.70
     Davidson diagonalization with overlap
     ethr =  1.00E-13,  avg # of iterations =  3.0

     total cpu time spent up to now is       43.7 secs

     total energy              =    -608.40821446 Ry
     Harris-Foulkes estimate   =    -608.40821446 Ry
     estimated scf accuracy    <          6.4E-10 Ry

     iteration #  8     ecut=   110.00 Ry     beta= 0.70
     Davidson diagonalization with overlap
     ethr =  1.00E-13,  avg # of iterations =  3.0

     total cpu time spent up to now is       46.6 secs

     total energy              =    -608.40821446 Ry
     Harris-Foulkes estimate   =    -608.40821446 Ry
     estimated scf accuracy    <          2.6E-12 Ry

     iteration #  9     ecut=   110.00 Ry     beta= 0.70
     Davidson diagonalization with overlap
     ethr =  1.00E-13,  avg # of iterations =  1.0

     total cpu time spent up to now is       48.2 secs

     total energy              =    -608.40821446 Ry
     Harris-Foulkes estimate   =    -608.40821446 Ry
     estimated scf accuracy    <          1.3E-12 Ry

     iteration # 10     ecut=   110.00 Ry     beta= 0.70
     Davidson diagonalization with overlap
     ethr =  1.00E-13,  avg # of iterations =  1.0

     total cpu time spent up to now is       49.8 secs

     End of self-consistent calculation

          k = 0.0000 0.0000 0.0000 (  9795 PWs)   bands (ev):

   -64.2795 -64.2680 -64.2680 -64.2680 -31.1050 -31.1050 -31.1050 -31.0609
   -31.0609 -31.0609 -31.0609 -31.0609 -31.0609 -31.0323 -31.0323 -31.0323
    -9.1239  -7.5789  -7.5789  -7.5789   4.0269   4.0269   4.0269   6.7354
     6.7354   6.7354   6.7354   6.7354   6.7354   8.0710   8.0710   8.0710

          k = 0.0000 0.0000 0.1250 (  9811 PWs)   bands (ev):

   -64.2791 -64.2684 -64.2680 -64.2680 -31.1033 -31.1033 -31.1026 -31.0626
   -31.0626 -31.0612 -31.0612 -31.0598 -31.0598 -31.0354 -31.0333 -31.0333
    -9.0665  -7.6385  -7.5696  -7.5696   4.1021   4.1021   4.1149   6.5853
     6.5853   6.6711   6.6711   6.7782   6.7782   7.7626   8.0100   8.0100

          k = 0.0000 0.0000 0.2500 (  9807 PWs)   bands (ev):

   -64.2778 -64.2697 -64.2680 -64.2680 -31.0985 -31.0985 -31.0955 -31.0673
   -31.0673 -31.0619 -31.0619 -31.0567 -31.0567 -31.0441 -31.0364 -31.0364
    -8.9024  -7.8083  -7.5472  -7.5472   4.3241   4.3241   4.3826   6.1917
     6.1917   6.5199   6.5199   6.9030   6.9030   7.0486   7.8418   7.8418

          k = 0.0000 0.0000 0.3750 (  9814 PWs)   bands (ev):

   -64.2759 -64.2715 -64.2680 -64.2680 -31.0913 -31.0913 -31.0846 -31.0744
   -31.0744 -31.0626 -31.0626 -31.0567 -31.0520 -31.0520 -31.0410 -31.0410
    -8.6547  -8.0620  -7.5247  -7.5247   4.6804   4.6804   4.8345   5.6748
     5.6748   6.2264   6.3742   6.3742   7.0981   7.0981   7.6040   7.6040

          k = 0.0000 0.0000-0.5000 (  9890 PWs)   bands (ev):

   -64.2737 -64.2737 -64.2680 -64.2680 -31.0829 -31.0829 -31.0829 -31.0829
   -31.0710 -31.0710 -31.0629 -31.0629 -31.0465 -31.0465 -31.0465 -31.0465
    -8.3596  -8.3596  -7.5153  -7.5153   5.1457   5.1457   5.1457   5.1457
     5.4614   5.4614   6.3153   6.3153   7.3423   7.3423   7.3423   7.3423

          k = 0.0000 0.1250 0.1250 (  9811 PWs)   bands (ev):

   -64.2787 -64.2684 -64.2684 -64.2680 -31.1016 -31.1013 -31.1013 -31.0665
   -31.0615 -31.0615 -31.0599 -31.0599 -31.0590 -31.0401 -31.0344 -31.0325
    -9.0104  -7.6265  -7.6265  -7.5627   4.1745   4.1745   4.1768   6.2867
     6.6309   6.6309   6.7254   6.7254   6.7888   7.4336   7.9446   8.0260

          k = 0.0000 0.1250 0.2500 (  9819 PWs)   bands (ev):

   -64.2774 -64.2696 -64.2684 -64.2680 -31.0978 -31.0969 -31.0955 -31.0724
   -31.0661 -31.0599 -31.0583 -31.0580 -31.0561 -31.0495 -31.0376 -31.0344
    -8.8498  -7.7890  -7.5963  -7.5471   4.3483   4.3970   4.3995   5.8488
     6.2437   6.6081   6.7580   6.7637   6.7762   6.8794   7.7646   7.9017

          k = 0.0000 0.1250 0.3750 (  9811 PWs)   bands (ev):

   -64.2756 -64.2714 -64.2683 -64.2681 -31.0925 -31.0898 -31.0862 -31.0791
   -31.0732 -31.0615 -31.0597 -31.0582 -31.0535 -31.0507 -31.0423 -31.0387
    -8.6080  -8.0331  -7.5620  -7.5352   4.6222   4.7502   4.7909   5.3946
     5.7339   6.0344   6.5166   6.6294   6.9712   7.1103   7.5106   7.6667

          k = 0.0000 0.1250-0.5000 (  9828 PWs)   bands (ev):

   -64.2735 -64.2735 -64.2682 -64.2682 -31.0860 -31.0860 -31.0815 -31.0815
   -31.0744 -31.0744 -31.0590 -31.0590 -31.0479 -31.0479 -31.0445 -31.0445
    -8.3211  -8.3211  -7.5390  -7.5390   4.9774   4.9774   5.2109   5.2109
     5.3469   5.3469   6.5228   6.5228   7.2314   7.2314   7.3860   7.3860

          k = 0.0000 0.2500 0.2500 (  9769 PWs)   bands (ev):

   -64.2764 -64.2694 -64.2694 -64.2682 -31.0951 -31.0951 -31.0923 -31.0796
   -31.0628 -31.0628 -31.0596 -31.0547 -31.0547 -31.0540 -31.0409 -31.0337
    -8.6999  -7.7378  -7.7378  -7.5514   4.4504   4.4504   4.6118   5.3832
     6.2159   6.3954   6.3954   6.8403   6.8403   6.9409   7.5530   7.8938

          k = 0.0000 0.2500 0.3750 (  9818 PWs)   bands (ev):

   -64.2748 -64.2710 -64.2691 -64.2685 -31.0938 -31.0897 -31.0860 -31.0855
   -31.0709 -31.0695 -31.0577 -31.0529 -31.0519 -31.0479 -31.0459 -31.0362
    -8.4759  -7.9538  -7.6717  -7.5701   4.5448   4.6845   4.9554   4.9893
     5.6094   5.9068   6.6333   6.8425   6.9651   7.1485   7.2564   7.7347

          k = 0.0000 0.2500-0.5000 (  9844 PWs)   bands (ev):

   -64.2729 -64.2729 -64.2688 -64.2688 -31.0909 -31.0909 -31.0814 -31.0814
   -31.0775 -31.0775 -31.0518 -31.0518 -31.0518 -31.0518 -31.0412 -31.0412
    -8.2133  -8.2133  -7.6111  -7.6111   4.7125   4.7125   5.0772   5.0772
     5.4023   5.4023   6.9016   6.9016   6.9328   6.9328   7.4666   7.4666

          k = 0.0000 0.3750 0.3750 (  9827 PWs)   bands (ev):

   -64.2735 -64.2704 -64.2704 -64.2691 -31.0927 -31.0927 -31.0912 -31.0805
   -31.0791 -31.0641 -31.0641 -31.0513 -31.0474 -31.0457 -31.0457 -31.0364
    -8.2814  -7.8442  -7.8442  -7.6351   4.5820   4.5820   4.6959   5.1537
     5.2828   6.1796   6.1796   6.9046   7.1676   7.2017   7.2017   7.6866

          k = 0.0000 0.3750-0.5000 (  9802 PWs)   bands (ev):

   -64.2719 -64.2719 -64.2697 -64.2697 -31.0935 -31.0935 -31.0882 -31.0882
   -31.0716 -31.0716 -31.0577 -31.0577 -31.0453 -31.0453 -31.0398 -31.0398
    -8.0583  -8.0583  -7.7304  -7.7304   4.5653   4.5653   4.7893   4.7893
     5.7059   5.7059   6.5260   6.5260   7.2289   7.2289   7.5007   7.5007

          k = 0.0000-0.5000-0.5000 (  9748 PWs)   bands (ev):

   -64.2708 -64.2708 -64.2708 -64.2708 -31.0925 -31.0925 -31.0925 -31.0925
   -31.0646 -31.0646 -31.0646 -31.0646 -31.0411 -31.0411 -31.0411 -31.0411
    -7.8870  -7.8870  -7.8870  -7.8870   4.5959   4.5959   4.5959   4.5959
     6.0951   6.0951   6.0951   6.0951   7.4311   7.4311   7.4311   7.4311

          k = 0.1250 0.1250 0.1250 (  9819 PWs)   bands (ev):

   -64.2782 -64.2684 -64.2684 -64.2684 -31.1002 -31.1002 -31.1002 -31.0647
   -31.0647 -31.0647 -31.0580 -31.0580 -31.0580 -31.0449 -31.0335 -31.0335
    -8.9554  -7.6168  -7.6168  -7.6168   4.2289   4.2289   4.2289   6.3644
     6.3644   6.3644   6.8290   6.8290   6.8290   7.1264   7.9703   7.9703

          k = 0.1250 0.1250 0.2500 (  9822 PWs)   bands (ev):

   -64.2771 -64.2696 -64.2684 -64.2684 -31.0972 -31.0972 -31.0959 -31.0695
   -31.0695 -31.0597 -31.0568 -31.0568 -31.0551 -31.0547 -31.0364 -31.0348
    -8.7985  -7.7719  -7.5933  -7.5933   4.3823   4.3823   4.4014   5.9764
     5.9764   6.5068   6.5797   6.8060   6.8060   6.9458   7.8162   7.8598

          k = 0.1250 0.1250 0.3750 (  9809 PWs)   bands (ev):

   -64.2754 -64.2713 -64.2684 -64.2684 -31.0934 -31.0934 -31.0884 -31.0743
   -31.0743 -31.0664 -31.0565 -31.0565 -31.0528 -31.0508 -31.0407 -31.0390
    -8.5628  -8.0061  -7.5696  -7.5696   4.5949   4.5949   4.7240   5.6096
     5.6096   5.8250   6.7087   6.7087   6.8906   7.1279   7.5933   7.5974

          k = 0.1250 0.1250-0.5000 (  9844 PWs)   bands (ev):

   -64.2733 -64.2733 -64.2684 -64.2684 -31.0912 -31.0912 -31.0782 -31.0782
   -31.0768 -31.0768 -31.0565 -31.0565 -31.0457 -31.0457 -31.0454 -31.0454
    -8.2842  -8.2842  -7.5597  -7.5597   4.7285   4.7285   5.2074   5.2074
     5.4250   5.4250   6.6574   6.6574   7.2472   7.2472   7.3551   7.3551

          k = 0.1250 0.2500 0.2500 (  9801 PWs)   bands (ev):

   -64.2761 -64.2694 -64.2694 -64.2685 -31.0966 -31.0966 -31.0962 -31.0733
   -31.0649 -31.0628 -31.0628 -31.0534 -31.0534 -31.0532 -31.0387 -31.0345
    -8.6525  -7.7270  -7.7270  -7.5894   4.4045   4.4045   4.4548   5.6574
     5.9560   6.2894   6.2894   6.9463   6.9463   6.9730   7.6591   7.8526

          k = 0.1250 0.2500 0.3750 (  9792 PWs)   bands (ev):

   -64.2745 -64.2709 -64.2692 -64.2687 -31.0971 -31.0961 -31.0930 -31.0760
   -31.0738 -31.0668 -31.0553 -31.0518 -31.0512 -31.0481 -31.0431 -31.0368
    -8.4352  -7.9326  -7.6711  -7.5961   4.4132   4.4832   4.5605   5.3766
     5.5528   5.9825   6.6760   6.9265   6.9998   7.1662   7.3936   7.6961

          k = 0.1250 0.2500-0.5000 (  9822 PWs)   bands (ev):

   -64.2727 -64.2727 -64.2690 -64.2690 -31.0968 -31.0968 -31.0859 -31.0859
   -31.0711 -31.0711 -31.0509 -31.0509 -31.0487 -31.0487 -31.0418 -31.0418
    -8.1815  -8.1815  -7.6233  -7.6233   4.4453   4.4453   4.8900   4.8900
     5.7035   5.7035   6.9541   6.9541   7.0583   7.0583   7.4368   7.4368

          k = 0.1250 0.3750 0.3750 (  9808 PWs)   bands (ev):

   -64.2733 -64.2704 -64.2704 -64.2692 -31.0988 -31.0973 -31.0973 -31.0858
   -31.0703 -31.0598 -31.0598 -31.0477 -31.0470 -31.0456 -31.0456 -31.0368
    -8.2481  -7.8325  -7.8325  -7.6490   4.3444   4.3892   4.3892   4.9139
     5.7180   6.3643   6.3643   7.0943   7.1861   7.2171   7.2171   7.6656

          k = 0.1250 0.3750-0.5000 (  9794 PWs)   bands (ev):

   -64.2719 -64.2719 -64.2698 -64.2698 -31.0994 -31.0994 -31.0934 -31.0934
   -31.0652 -31.0652 -31.0534 -31.0534 -31.0450 -31.0450 -31.0400 -31.0400
    -8.0350  -8.0350  -7.7309  -7.7309   4.3015   4.3015   4.5625   4.5625
     6.0187   6.0187   6.7396   6.7396   7.2436   7.2436   7.4897   7.4897

          k = 0.1250-0.5000-0.5000 (  9796 PWs)   bands (ev):

   -64.2708 -64.2708 -64.2708 -64.2708 -31.0983 -31.0983 -31.0983 -31.0983
   -31.0591 -31.0591 -31.0591 -31.0591 -31.0411 -31.0411 -31.0411 -31.0411
    -7.8748  -7.8748  -7.8748  -7.8748   4.3446   4.3446   4.3446   4.3446
     6.3747   6.3747   6.3747   6.3747   7.4312   7.4312   7.4312   7.4312

          k = 0.2500 0.2500 0.2500 (  9825 PWs)   bands (ev):

   -64.2752 -64.2694 -64.2694 -64.2694 -31.1000 -31.1000 -31.1000 -31.0754
   -31.0625 -31.0625 -31.0625 -31.0510 -31.0510 -31.0510 -31.0366 -31.0366
    -8.5185  -7.7009  -7.7009  -7.7009   4.2834   4.2834   4.2834   5.4306
     6.1764   6.1764   6.1764   7.0658   7.0658   7.0658   7.7378   7.7378

          k = 0.2500 0.2500 0.3750 (  9809 PWs)   bands (ev):

   -64.2738 -64.2707 -64.2694 -64.2694 -31.1031 -31.1031 -31.0997 -31.0862
   -31.0622 -31.0622 -31.0520 -31.0489 -31.0489 -31.0477 -31.0399 -31.0381
    -8.3209  -7.8764  -7.6746  -7.6746   4.1526   4.1526   4.2871   4.9038
     6.1524   6.1524   6.7313   7.1009   7.1009   7.2094   7.5724   7.5933

          k = 0.2500 0.2500-0.5000 (  9786 PWs)   bands (ev):

   -64.2723 -64.2723 -64.2694 -64.2694 -31.1043 -31.1043 -31.0949 -31.0949
   -31.0620 -31.0620 -31.0481 -31.0481 -31.0438 -31.0438 -31.0434 -31.0434
    -8.0941  -8.0941  -7.6636  -7.6636   4.0967   4.0967   4.5009   4.5009
     6.1595   6.1595   7.0987   7.0987   7.2316   7.2316   7.3864   7.3864

          k = 0.2500 0.3750 0.3750 (  9834 PWs)   bands (ev):

   -64.2728 -64.2704 -64.2704 -64.2697 -31.1074 -31.1056 -31.1056 -31.0962
   -31.0582 -31.0526 -31.0526 -31.0457 -31.0452 -31.0452 -31.0422 -31.0380
    -8.1560  -7.8039  -7.8039  -7.6937   3.9496   4.0300   4.0300   4.4476
     6.3577   6.6978   6.6978   7.2392   7.2604   7.2604   7.3965   7.6061

          k = 0.2500 0.3750-0.5000 (  9810 PWs)   bands (ev):

   -64.2716 -64.2716 -64.2701 -64.2701 -31.1084 -31.1084 -31.1031 -31.1031
   -31.0550 -31.0550 -31.0464 -31.0464 -31.0442 -31.0442 -31.0407 -31.0407
    -7.9726  -7.9726  -7.7377  -7.7377   3.9020   3.9020   4.1350   4.1350
     6.5576   6.5576   7.1178   7.1178   7.2863   7.2863   7.4572   7.4572

          k = 0.2500-0.5000-0.5000 (  9780 PWs)   bands (ev):

   -64.2708 -64.2708 -64.2708 -64.2708 -31.1080 -31.1080 -31.1080 -31.1080
   -31.0501 -31.0501 -31.0501 -31.0501 -31.0411 -31.0411 -31.0411 -31.0411
    -7.8453  -7.8453  -7.8453  -7.8453   3.9162   3.9162   3.9162   3.9162
     6.8760   6.8760   6.8760   6.8760   7.4313   7.4313   7.4313   7.4313

          k = 0.3750 0.3750 0.3750 (  9811 PWs)   bands (ev):

   -64.2721 -64.2704 -64.2704 -64.2704 -31.1119 -31.1119 -31.1119 -31.1056
   -31.0481 -31.0481 -31.0481 -31.0439 -31.0439 -31.0439 -31.0397 -31.0397
    -8.0272  -7.7750  -7.7750  -7.7750   3.7451   3.7451   3.7451   4.0261
     6.9404   6.9404   6.9404   7.3203   7.3203   7.3203   7.5188   7.5188

          k = 0.3750 0.3750-0.5000 (  9822 PWs)   bands (ev):

   -64.2713 -64.2713 -64.2704 -64.2704 -31.1143 -31.1143 -31.1113 -31.1113
   -31.0472 -31.0472 -31.0428 -31.0428 -31.0418 -31.0418 -31.0417 -31.0417
    -7.8912  -7.8912  -7.7629  -7.7629   3.6400   3.6400   3.7733   3.7733
     7.0188   7.0188   7.3542   7.3542   7.3577   7.3577   7.4182   7.4182

          k = 0.3750-0.5000-0.5000 (  9812 PWs)   bands (ev):

   -64.2708 -64.2708 -64.2708 -64.2708 -31.1153 -31.1153 -31.1153 -31.1153
   -31.0434 -31.0434 -31.0434 -31.0434 -31.0410 -31.0410 -31.0410 -31.0410
    -7.8154  -7.8154  -7.8154  -7.8154   3.5936   3.5936   3.5936   3.5936
     7.2790   7.2790   7.2790   7.2790   7.4315   7.4315   7.4315   7.4315

          k =-0.5000-0.5000-0.5000 (  9808 PWs)   bands (ev):

   -64.2708 -64.2708 -64.2708 -64.2708 -31.1180 -31.1180 -31.1180 -31.1180
   -31.0410 -31.0410 -31.0410 -31.0410 -31.0410 -31.0410 -31.0410 -31.0410
    -7.8029  -7.8029  -7.8029  -7.8029   3.4769   3.4769   3.4769   3.4769
     7.4316   7.4316   7.4316   7.4316   7.4316   7.4316   7.4316   7.4316

     highest occupied level (ev):     8.0710

!    total energy              =    -608.40821446 Ry
     Harris-Foulkes estimate   =    -608.40821446 Ry
     estimated scf accuracy    <          3.4E-13 Ry

     The total energy is the sum of the following terms:

     one-electron contribution =    -297.15857172 Ry
     hartree contribution      =     165.98480468 Ry
     xc contribution           =     -97.99042194 Ry
     ewald contribution        =    -379.24402548 Ry

     convergence has been achieved in  10 iterations

     Forces acting on atoms (cartesian axes, Ry/au):

     atom    1 type  1   force =     0.00000000    0.00000000    0.00000000
     atom    2 type  1   force =     0.00000000    0.00000000    0.00000000
     atom    3 type  1   force =     0.00000000   -0.00000000    0.00000000
     atom    4 type  1   force =     0.00000000    0.00000000    0.00000000
     atom    5 type  2   force =     0.00000000   -0.00000000   -0.00000000
     atom    6 type  2   force =     0.00000000   -0.00000000    0.00000000
     atom    7 type  2   force =     0.00000000    0.00000000    0.00000000
     atom    8 type  2   force =     0.00000000    0.00000000    0.00000000

     Total force =     0.000000     Total SCF correction =     0.000000


     Computing stress (Cartesian axis) and pressure

          total   stress  (Ry/bohr**3)                   (kbar)     P=   48.26
   0.00032809   0.00000000   0.00000000         48.26      0.00      0.00
   0.00000000   0.00032809   0.00000000          0.00     48.26      0.00
   0.00000000   0.00000000   0.00032809          0.00      0.00     48.26

     Message from routine bfgs:
     history already reset at previous step: stopping

     bfgs converged in   4 scf cycles and   2 bfgs steps
     (criteria: energy <  1.0E-04 Ry, force <  4.0E-04Ry/Bohr, cell <  5.0E-02kbar)

     End of BFGS Geometry Optimization

     Final enthalpy =    -608.4082144569 Ry
Begin final coordinates
     new unit-cell volume =    503.58400 a.u.^3 (    74.62345 Ang^3 )
     density =      3.58706 g/cm^3

CELL_PARAMETERS (angstrom)
   4.210093806   0.000000000   0.000000000
   0.000000000   4.210093806   0.000000000
   0.000000000   0.000000000   4.210093806

ATOMIC_POSITIONS (crystal)
Mg       0.000000000   0.000000000   0.000000000
Mg       0.500000000   0.500000000   0.000000000
Mg       0.500000000   0.000000000   0.500000000
Mg       0.000000000   0.500000000   0.500000000
O        0.500000000   0.000000000  -0.000000000
O        0.000000000   0.500000000   0.000000000
O        0.000000000   0.000000000   0.500000000
O        0.500000000   0.500000000   0.500000000
End final coordinates



     Writing output data file MgO.save/

     A final scf calculation at the relaxed structure.
     The G-vectors are recalculated for the final unit cell
     Results may differ from those at the preceding step.
 
     Parallelization info
     --------------------
     sticks:   dense  smooth     PW     G-vecs:    dense   smooth      PW
     Min         110     110     31                 3922     3922     591
     Max         111     111     32                 3927     3927     594
     Sum        2217    2217    633                78517    78517   11837
 


     bravais-lattice index     =            0
     lattice parameter (alat)  =       7.9557  a.u.
     unit-cell volume          =     503.5840 (a.u.)^3
     number of atoms/cell      =            8
     number of atomic types    =            2
     number of electrons       =        64.00
     number of Kohn-Sham states=           32
     kinetic-energy cutoff     =     110.0000  Ry
     charge density cutoff     =     440.0000  Ry
     convergence threshold     =      1.0E-12
     mixing beta               =       0.7000
     number of iterations used =            8  plain     mixing
     Exchange-correlation      = PBE ( 1  4  3  4 0 0)

     celldm(1)=   7.955747  celldm(2)=   0.000000  celldm(3)=   0.000000
     celldm(4)=   0.000000  celldm(5)=   0.000000  celldm(6)=   0.000000

     crystal axes: (cart. coord. in units of alat)
               a(1) = (   1.000022   0.000000   0.000000 )  
               a(2) = (   0.000000   1.000022   0.000000 )  
               a(3) = (   0.000000   0.000000   1.000022 )  

     reciprocal axes: (cart. coord. in units 2 pi/alat)
               b(1) = (  0.999978  0.000000  0.000000 )  
               b(2) = (  0.000000  0.999978  0.000000 )  
               b(3) = (  0.000000  0.000000  0.999978 )  


     PseudoPot. # 1 for Mg read from file:
     ./Mg.nc.UPF
     MD5 check sum: 4c04d8c6e0476e83eaecaf72fa8acc4d
     Pseudo is Norm-conserving, Zval = 10.0
     Generated using ONCVPSP code by D. R. Hamann
     Using radial grid of 1510 points,  4 beta functions with: 
                l(1) =   0
                l(2) =   0
                l(3) =   1
                l(4) =   1

     PseudoPot. # 2 for O  read from file:
     ./O.nc.UPF
     MD5 check sum: 3e3f909f7470e8921608ab6b1f57bbae
     Pseudo is Norm-conserving + core correction, Zval =  6.0
     Generated using ONCVPSP code by D. R. Hamann
     Using radial grid of  936 points,  5 beta functions with: 
                l(1) =   0
                l(2) =   0
                l(3) =   1
                l(4) =   1
                l(5) =   2

     atomic species   valence    mass     pseudopotential
        Mg            10.00    24.30000     Mg( 1.00)
        O              6.00    16.00000     O ( 1.00)

     48 Sym. Ops., with inversion, found



   Cartesian axes

     site n.     atom                  positions (alat units)
         1           Mg  tau(   1) = (   0.0000000   0.0000000   0.0000000  )
         2           Mg  tau(   2) = (   0.5000111   0.5000111   0.0000000  )
         3           Mg  tau(   3) = (   0.5000111   0.0000000   0.5000111  )
         4           Mg  tau(   4) = (   0.0000000   0.5000111   0.5000111  )
         5           O   tau(   5) = (   0.5000111   0.0000000  -0.0000000  )
         6           O   tau(   6) = (   0.0000000   0.5000111   0.0000000  )
         7           O   tau(   7) = (   0.0000000   0.0000000   0.5000111  )
         8           O   tau(   8) = (   0.5000111   0.5000111   0.5000111  )

     number of k points=    35
                       cart. coord. in units 2pi/alat
        k(    1) = (   0.0000000   0.0000000   0.0000000), wk =   0.0039062
        k(    2) = (   0.0000000   0.0000000   0.1249972), wk =   0.0234375
        k(    3) = (   0.0000000   0.0000000   0.2499944), wk =   0.0234375
        k(    4) = (   0.0000000   0.0000000   0.3749916), wk =   0.0234375
        k(    5) = (   0.0000000   0.0000000  -0.4999889), wk =   0.0117188
        k(    6) = (   0.0000000   0.1249972   0.1249972), wk =   0.0468750
        k(    7) = (   0.0000000   0.1249972   0.2499944), wk =   0.0937500
        k(    8) = (   0.0000000   0.1249972   0.3749916), wk =   0.0937500
        k(    9) = (   0.0000000   0.1249972  -0.4999889), wk =   0.0468750
        k(   10) = (   0.0000000   0.2499944   0.2499944), wk =   0.0468750
        k(   11) = (   0.0000000   0.2499944   0.3749916), wk =   0.0937500
        k(   12) = (   0.0000000   0.2499944  -0.4999889), wk =   0.0468750
        k(   13) = (   0.0000000   0.3749916   0.3749916), wk =   0.0468750
        k(   14) = (   0.0000000   0.3749916  -0.4999889), wk =   0.0468750
        k(   15) = (   0.0000000  -0.4999889  -0.4999889), wk =   0.0117188
        k(   16) = (   0.1249972   0.1249972   0.1249972), wk =   0.0312500
        k(   17) = (   0.1249972   0.1249972   0.2499944), wk =   0.0937500
        k(   18) = (   0.1249972   0.1249972   0.3749916), wk =   0.0937500
        k(   19) = (   0.1249972   0.1249972  -0.4999889), wk =   0.0468750
        k(   20) = (   0.1249972   0.2499944   0.2499944), wk =   0.0937500
        k(   21) = (   0.1249972   0.2499944   0.3749916), wk =   0.1875000
        k(   22) = (   0.1249972   0.2499944  -0.4999889), wk =   0.0937500
        k(   23) = (   0.1249972   0.3749916   0.3749916), wk =   0.0937500
        k(   24) = (   0.1249972   0.3749916  -0.4999889), wk =   0.0937500
        k(   25) = (   0.1249972  -0.4999889  -0.4999889), wk =   0.0234375
        k(   26) = (   0.2499944   0.2499944   0.2499944), wk =   0.0312500
        k(   27) = (   0.2499944   0.2499944   0.3749916), wk =   0.0937500
        k(   28) = (   0.2499944   0.2499944  -0.4999889), wk =   0.0468750
        k(   29) = (   0.2499944   0.3749916   0.3749916), wk =   0.0937500
        k(   30) = (   0.2499944   0.3749916  -0.4999889), wk =   0.0937500
        k(   31) = (   0.2499944  -0.4999889  -0.4999889), wk =   0.0234375
        k(   32) = (   0.3749916   0.3749916   0.3749916), wk =   0.0312500
        k(   33) = (   0.3749916   0.3749916  -0.4999889), wk =   0.0468750
        k(   34) = (   0.3749916  -0.4999889  -0.4999889), wk =   0.0234375
        k(   35) = (  -0.4999889  -0.4999889  -0.4999889), wk =   0.0039062

     Dense  grid:    78517 G-vectors     FFT dimensions: (  54,  54,  54)

     Estimated max dynamical RAM per process >      20.45 MB

     Estimated total dynamical RAM >     408.94 MB

     Initial potential from superposition of free atoms

     starting charge   63.99678, renormalised to   64.00000
     Starting wfcs are   36 randomized atomic wfcs

     total cpu time spent up to now is       51.8 secs

     Self-consistent Calculation

     iteration #  1     ecut=   110.00 Ry     beta= 0.70
     Davidson diagonalization with overlap
     ethr =  1.00E-06,  avg # of iterations =  4.9

     total cpu time spent up to now is       56.2 secs

     total energy              =    -607.76174824 Ry
     Harris-Foulkes estimate   =    -608.86575328 Ry
     estimated scf accuracy    <       1.53675732 Ry

     iteration #  2     ecut=   110.00 Ry     beta= 0.70
     Davidson diagonalization with overlap
     ethr =  2.40E-03,  avg # of iterations =  2.9

     total cpu time spent up to now is       58.4 secs

     total energy              =    -608.14396040 Ry
     Harris-Foulkes estimate   =    -608.78917052 Ry
     estimated scf accuracy    <       1.32338854 Ry

     iteration #  3     ecut=   110.00 Ry     beta= 0.70
     Davidson diagonalization with overlap
     ethr =  2.07E-03,  avg # of iterations =  2.0

     total cpu time spent up to now is       60.4 secs

     total energy              =    -608.40681534 Ry
     Harris-Foulkes estimate   =    -608.40742958 Ry
     estimated scf accuracy    <       0.00633127 Ry

     iteration #  4     ecut=   110.00 Ry     beta= 0.70
     Davidson diagonalization with overlap
     ethr =  9.89E-06,  avg # of iterations =  2.0

     total cpu time spent up to now is       62.4 secs

     total energy              =    -608.40820679 Ry
     Harris-Foulkes estimate   =    -608.40823682 Ry
     estimated scf accuracy    <       0.00008285 Ry

     iteration #  5     ecut=   110.00 Ry     beta= 0.70
     Davidson diagonalization with overlap
     ethr =  1.29E-07,  avg # of iterations =  2.0

     total cpu time spent up to now is       64.2 secs

     total energy              =    -608.40821311 Ry
     Harris-Foulkes estimate   =    -608.40821132 Ry
     estimated scf accuracy    <       0.00001000 Ry

     iteration #  6     ecut=   110.00 Ry     beta= 0.70
     Davidson diagonalization with overlap
     ethr =  1.56E-08,  avg # of iterations =  2.0

     total cpu time spent up to now is       66.4 secs

     total energy              =    -608.40821442 Ry
     Harris-Foulkes estimate   =    -608.40821473 Ry
     estimated scf accuracy    <       0.00000057 Ry

     iteration #  7     ecut=   110.00 Ry     beta= 0.70
     Davidson diagonalization with overlap
     ethr =  8.94E-10,  avg # of iterations =  2.0

     total cpu time spent up to now is       68.5 secs

     total energy              =    -608.40821444 Ry
     Harris-Foulkes estimate   =    -608.40821449 Ry
     estimated scf accuracy    <       0.00000010 Ry

     iteration #  8     ecut=   110.00 Ry     beta= 0.70
     Davidson diagonalization with overlap
     ethr =  1.61E-10,  avg # of iterations =  2.0

     total cpu time spent up to now is       70.6 secs

     total energy              =    -608.40821446 Ry
     Harris-Foulkes estimate   =    -608.40821446 Ry
     estimated scf accuracy    <          3.6E-09 Ry

     iteration #  9     ecut=   110.00 Ry     beta= 0.70
     Davidson diagonalization with overlap
     ethr =  5.62E-12,  avg # of iterations =  2.0

     total cpu time spent up to now is       72.8 secs

     total energy              =    -608.40821446 Ry
     Harris-Foulkes estimate   =    -608.40821446 Ry
     estimated scf accuracy    <          4.0E-10 Ry

     iteration # 10     ecut=   110.00 Ry     beta= 0.70
     Davidson diagonalization with overlap
     ethr =  6.19E-13,  avg # of iterations =  2.0

     total cpu time spent up to now is       74.7 secs

     total energy              =    -608.40821446 Ry
     Harris-Foulkes estimate   =    -608.40821446 Ry
     estimated scf accuracy    <          9.7E-11 Ry

     iteration # 11     ecut=   110.00 Ry     beta= 0.70
     Davidson diagonalization with overlap
     ethr =  1.51E-13,  avg # of iterations =  2.0

     total cpu time spent up to now is       76.7 secs

     End of self-consistent calculation

          k = 0.0000 0.0000 0.0000 (  9795 PWs)   bands (ev):

   -64.2795 -64.2680 -64.2680 -64.2680 -31.1050 -31.1050 -31.1050 -31.0609
   -31.0609 -31.0609 -31.0609 -31.0609 -31.0609 -31.0323 -31.0323 -31.0323
    -9.1239  -7.5789  -7.5789  -7.5789   4.0269   4.0269   4.0269   6.7354
     6.7354   6.7354   6.7354   6.7354   6.7354   8.0710   8.0710   8.0710

          k = 0.0000 0.0000 0.1250 (  9811 PWs)   bands (ev):

   -64.2791 -64.2684 -64.2680 -64.2680 -31.1033 -31.1033 -31.1026 -31.0626
   -31.0626 -31.0612 -31.0612 -31.0598 -31.0598 -31.0354 -31.0333 -31.0333
    -9.0665  -7.6385  -7.5696  -7.5696   4.1021   4.1021   4.1149   6.5853
     6.5853   6.6711   6.6711   6.7782   6.7782   7.7626   8.0100   8.0100

          k = 0.0000 0.0000 0.2500 (  9807 PWs)   bands (ev):

   -64.2778 -64.2697 -64.2680 -64.2680 -31.0985 -31.0985 -31.0955 -31.0673
   -31.0673 -31.0619 -31.0619 -31.0567 -31.0567 -31.0441 -31.0364 -31.0364
    -8.9024  -7.8083  -7.5472  -7.5472   4.3241   4.3241   4.3826   6.1917
     6.1917   6.5199   6.5199   6.9030   6.9030   7.0486   7.8418   7.8418

          k = 0.0000 0.0000 0.3750 (  9814 PWs)   bands (ev):

   -64.2759 -64.2715 -64.2680 -64.2680 -31.0913 -31.0913 -31.0846 -31.0744
   -31.0744 -31.0626 -31.0626 -31.0567 -31.0520 -31.0520 -31.0410 -31.0410
    -8.6547  -8.0620  -7.5247  -7.5247   4.6804   4.6804   4.8345   5.6748
     5.6748   6.2264   6.3742   6.3742   7.0981   7.0981   7.6040   7.6040

          k = 0.0000 0.0000-0.5000 (  9890 PWs)   bands (ev):

   -64.2737 -64.2737 -64.2680 -64.2680 -31.0829 -31.0829 -31.0829 -31.0829
   -31.0710 -31.0710 -31.0629 -31.0629 -31.0465 -31.0465 -31.0465 -31.0465
    -8.3596  -8.3596  -7.5153  -7.5153   5.1457   5.1457   5.1457   5.1457
     5.4614   5.4614   6.3153   6.3153   7.3423   7.3423   7.3423   7.3423

          k = 0.0000 0.1250 0.1250 (  9811 PWs)   bands (ev):

   -64.2787 -64.2684 -64.2684 -64.2680 -31.1016 -31.1013 -31.1013 -31.0665
   -31.0615 -31.0615 -31.0599 -31.0599 -31.0590 -31.0401 -31.0344 -31.0325
    -9.0104  -7.6265  -7.6265  -7.5627   4.1745   4.1745   4.1768   6.2867
     6.6309   6.6309   6.7254   6.7254   6.7888   7.4336   7.9446   8.0260

          k = 0.0000 0.1250 0.2500 (  9819 PWs)   bands (ev):

   -64.2774 -64.2696 -64.2684 -64.2680 -31.0978 -31.0969 -31.0955 -31.0724
   -31.0661 -31.0599 -31.0583 -31.0580 -31.0561 -31.0495 -31.0376 -31.0344
    -8.8498  -7.7890  -7.5963  -7.5471   4.3483   4.3970   4.3995   5.8488
     6.2437   6.6081   6.7580   6.7637   6.7762   6.8794   7.7646   7.9017

          k = 0.0000 0.1250 0.3750 (  9811 PWs)   bands (ev):

   -64.2756 -64.2714 -64.2683 -64.2681 -31.0925 -31.0898 -31.0862 -31.0791
   -31.0732 -31.0615 -31.0597 -31.0582 -31.0535 -31.0507 -31.0423 -31.0387
    -8.6080  -8.0331  -7.5620  -7.5352   4.6222   4.7502   4.7909   5.3946
     5.7339   6.0344   6.5166   6.6294   6.9712   7.1103   7.5106   7.6667

          k = 0.0000 0.1250-0.5000 (  9828 PWs)   bands (ev):

   -64.2735 -64.2735 -64.2682 -64.2682 -31.0860 -31.0860 -31.0815 -31.0815
   -31.0744 -31.0744 -31.0590 -31.0590 -31.0479 -31.0479 -31.0445 -31.0445
    -8.3211  -8.3211  -7.5390  -7.5390   4.9774   4.9774   5.2109   5.2109
     5.3469   5.3469   6.5228   6.5228   7.2314   7.2314   7.3860   7.3860

          k = 0.0000 0.2500 0.2500 (  9769 PWs)   bands (ev):

   -64.2764 -64.2694 -64.2694 -64.2682 -31.0951 -31.0951 -31.0923 -31.0796
   -31.0628 -31.0628 -31.0596 -31.0547 -31.0547 -31.0540 -31.0409 -31.0337
    -8.6999  -7.7378  -7.7378  -7.5514   4.4504   4.4504   4.6118   5.3832
     6.2159   6.3954   6.3954   6.8403   6.8403   6.9409   7.5530   7.8938

          k = 0.0000 0.2500 0.3750 (  9818 PWs)   bands (ev):

   -64.2748 -64.2710 -64.2691 -64.2685 -31.0938 -31.0897 -31.0860 -31.0855
   -31.0709 -31.0695 -31.0577 -31.0529 -31.0519 -31.0479 -31.0459 -31.0362
    -8.4760  -7.9538  -7.6717  -7.5701   4.5448   4.6845   4.9554   4.9893
     5.6094   5.9068   6.6333   6.8425   6.9651   7.1485   7.2564   7.7347

          k = 0.0000 0.2500-0.5000 (  9844 PWs)   bands (ev):

   -64.2729 -64.2729 -64.2688 -64.2688 -31.0909 -31.0909 -31.0814 -31.0814
   -31.0775 -31.0775 -31.0518 -31.0518 -31.0518 -31.0518 -31.0412 -31.0412
    -8.2133  -8.2133  -7.6111  -7.6111   4.7125   4.7125   5.0772   5.0772
     5.4023   5.4023   6.9016   6.9016   6.9328   6.9328   7.4666   7.4666

          k = 0.0000 0.3750 0.3750 (  9827 PWs)   bands (ev):

   -64.2735 -64.2704 -64.2704 -64.2691 -31.0927 -31.0927 -31.0912 -31.0805
   -31.0791 -31.0641 -31.0641 -31.0513 -31.0474 -31.0457 -31.0457 -31.0364
    -8.2814  -7.8442  -7.8442  -7.6351   4.5820   4.5820   4.6959   5.1537
     5.2828   6.1796   6.1796   6.9046   7.1676   7.2017   7.2017   7.6866

          k = 0.0000 0.3750-0.5000 (  9802 PWs)   bands (ev):

   -64.2719 -64.2719 -64.2697 -64.2697 -31.0935 -31.0935 -31.0882 -31.0882
   -31.0716 -31.0716 -31.0577 -31.0577 -31.0453 -31.0453 -31.0398 -31.0398
    -8.0583  -8.0583  -7.7304  -7.7304   4.5653   4.5653   4.7893   4.7893
     5.7059   5.7059   6.5260   6.5260   7.2289   7.2289   7.5007   7.5007

          k = 0.0000-0.5000-0.5000 (  9748 PWs)   bands (ev):

   -64.2708 -64.2708 -64.2708 -64.2708 -31.0925 -31.0925 -31.0925 -31.0925
   -31.0646 -31.0646 -31.0646 -31.0646 -31.0411 -31.0411 -31.0411 -31.0411
    -7.8870  -7.8870  -7.8870  -7.8870   4.5959   4.5959   4.5959   4.5959
     6.0951   6.0951   6.0951   6.0951   7.4311   7.4311   7.4311   7.4311

          k = 0.1250 0.1250 0.1250 (  9819 PWs)   bands (ev):

   -64.2782 -64.2684 -64.2684 -64.2684 -31.1002 -31.1002 -31.1002 -31.0647
   -31.0647 -31.0647 -31.0580 -31.0580 -31.0580 -31.0449 -31.0335 -31.0335
    -8.9554  -7.6168  -7.6168  -7.6168   4.2289   4.2289   4.2289   6.3644
     6.3644   6.3644   6.8290   6.8290   6.8290   7.1264   7.9703   7.9703

          k = 0.1250 0.1250 0.2500 (  9822 PWs)   bands (ev):

   -64.2771 -64.2696 -64.2684 -64.2684 -31.0972 -31.0972 -31.0959 -31.0695
   -31.0695 -31.0597 -31.0568 -31.0568 -31.0551 -31.0547 -31.0364 -31.0348
    -8.7985  -7.7719  -7.5933  -7.5933   4.3823   4.3823   4.4014   5.9764
     5.9764   6.5068   6.5797   6.8060   6.8060   6.9458   7.8162   7.8598

          k = 0.1250 0.1250 0.3750 (  9809 PWs)   bands (ev):

   -64.2754 -64.2713 -64.2684 -64.2684 -31.0934 -31.0934 -31.0884 -31.0743
   -31.0743 -31.0664 -31.0565 -31.0565 -31.0528 -31.0508 -31.0407 -31.0390
    -8.5628  -8.0061  -7.5696  -7.5696   4.5949   4.5949   4.7240   5.6096
     5.6096   5.8250   6.7087   6.7087   6.8906   7.1279   7.5933   7.5974

          k = 0.1250 0.1250-0.5000 (  9844 PWs)   bands (ev):

   -64.2733 -64.2733 -64.2684 -64.2684 -31.0912 -31.0912 -31.0782 -31.0782
   -31.0768 -31.0768 -31.0565 -31.0565 -31.0457 -31.0457 -31.0454 -31.0454
    -8.2842  -8.2842  -7.5597  -7.5597   4.7285   4.7285   5.2074   5.2074
     5.4250   5.4250   6.6574   6.6574   7.2472   7.2472   7.3551   7.3551

          k = 0.1250 0.2500 0.2500 (  9801 PWs)   bands (ev):

   -64.2761 -64.2694 -64.2694 -64.2685 -31.0966 -31.0966 -31.0962 -31.0733
   -31.0649 -31.0628 -31.0628 -31.0534 -31.0534 -31.0532 -31.0387 -31.0345
    -8.6525  -7.7270  -7.7270  -7.5894   4.4045   4.4045   4.4548   5.6574
     5.9560   6.2894   6.2894   6.9463   6.9463   6.9730   7.6591   7.8526

          k = 0.1250 0.2500 0.3750 (  9792 PWs)   bands (ev):

   -64.2745 -64.2709 -64.2692 -64.2687 -31.0971 -31.0961 -31.0930 -31.0760
   -31.0739 -31.0668 -31.0553 -31.0518 -31.0512 -31.0481 -31.0431 -31.0368
    -8.4352  -7.9326  -7.6711  -7.5961   4.4132   4.4832   4.5605   5.3766
     5.5528   5.9825   6.6760   6.9265   6.9998   7.1662   7.3936   7.6961

          k = 0.1250 0.2500-0.5000 (  9822 PWs)   bands (ev):

   -64.2727 -64.2727 -64.2690 -64.2690 -31.0968 -31.0968 -31.0859 -31.0859
   -31.0711 -31.0711 -31.0509 -31.0509 -31.0487 -31.0487 -31.0418 -31.0418
    -8.1815  -8.1815  -7.6233  -7.6233   4.4453   4.4453   4.8900   4.8900
     5.7035   5.7035   6.9541   6.9541   7.0583   7.0583   7.4368   7.4368

          k = 0.1250 0.3750 0.3750 (  9808 PWs)   bands (ev):

   -64.2733 -64.2704 -64.2704 -64.2692 -31.0988 -31.0973 -31.0973 -31.0858
   -31.0703 -31.0598 -31.0598 -31.0477 -31.0470 -31.0456 -31.0456 -31.0368
    -8.2481  -7.8325  -7.8325  -7.6490   4.3444   4.3892   4.3892   4.9139
     5.7180   6.3643   6.3643   7.0943   7.1861   7.2171   7.2171   7.6656

          k = 0.1250 0.3750-0.5000 (  9794 PWs)   bands (ev):

   -64.2719 -64.2719 -64.2698 -64.2698 -31.0994 -31.0994 -31.0934 -31.0934
   -31.0652 -31.0652 -31.0534 -31.0534 -31.0450 -31.0450 -31.0400 -31.0400
    -8.0350  -8.0350  -7.7309  -7.7309   4.3015   4.3015   4.5625   4.5625
     6.0187   6.0187   6.7396   6.7396   7.2436   7.2436   7.4897   7.4897

          k = 0.1250-0.5000-0.5000 (  9796 PWs)   bands (ev):

   -64.2708 -64.2708 -64.2708 -64.2708 -31.0983 -31.0983 -31.0983 -31.0983
   -31.0592 -31.0592 -31.0592 -31.0592 -31.0411 -31.0411 -31.0411 -31.0411
    -7.8749  -7.8749  -7.8749  -7.8749   4.3446   4.3446   4.3446   4.3446
     6.3747   6.3747   6.3747   6.3747   7.4312   7.4312   7.4312   7.4312

          k = 0.2500 0.2500 0.2500 (  9825 PWs)   bands (ev):

   -64.2752 -64.2694 -64.2694 -64.2694 -31.1000 -31.1000 -31.1000 -31.0754
   -31.0625 -31.0625 -31.0625 -31.0510 -31.0510 -31.0510 -31.0366 -31.0366
    -8.5185  -7.7009  -7.7009  -7.7009   4.2834   4.2834   4.2834   5.4306
     6.1764   6.1764   6.1764   7.0658   7.0658   7.0658   7.7378   7.7378

          k = 0.2500 0.2500 0.3750 (  9809 PWs)   bands (ev):

   -64.2738 -64.2707 -64.2694 -64.2694 -31.1031 -31.1031 -31.0997 -31.0862
   -31.0622 -31.0622 -31.0520 -31.0489 -31.0489 -31.0477 -31.0399 -31.0381
    -8.3209  -7.8764  -7.6746  -7.6746   4.1526   4.1526   4.2871   4.9038
     6.1524   6.1524   6.7313   7.1009   7.1009   7.2094   7.5724   7.5933

          k = 0.2500 0.2500-0.5000 (  9786 PWs)   bands (ev):

   -64.2723 -64.2723 -64.2694 -64.2694 -31.1043 -31.1043 -31.0949 -31.0949
   -31.0620 -31.0620 -31.0481 -31.0481 -31.0438 -31.0438 -31.0434 -31.0434
    -8.0941  -8.0941  -7.6636  -7.6636   4.0967   4.0967   4.5009   4.5009
     6.1595   6.1595   7.0987   7.0987   7.2316   7.2316   7.3864   7.3864

          k = 0.2500 0.3750 0.3750 (  9834 PWs)   bands (ev):

   -64.2728 -64.2704 -64.2704 -64.2697 -31.1074 -31.1056 -31.1056 -31.0962
   -31.0582 -31.0526 -31.0526 -31.0457 -31.0452 -31.0452 -31.0422 -31.0380
    -8.1560  -7.8039  -7.8039  -7.6937   3.9496   4.0300   4.0300   4.4476
     6.3577   6.6978   6.6978   7.2392   7.2604   7.2604   7.3965   7.6061

          k = 0.2500 0.3750-0.5000 (  9810 PWs)   bands (ev):

   -64.2716 -64.2716 -64.2701 -64.2701 -31.1084 -31.1084 -31.1031 -31.1031
   -31.0550 -31.0550 -31.0464 -31.0464 -31.0442 -31.0442 -31.0407 -31.0407
    -7.9726  -7.9726  -7.7377  -7.7377   3.9020   3.9020   4.1350   4.1350
     6.5576   6.5576   7.1178   7.1178   7.2863   7.2863   7.4572   7.4572

          k = 0.2500-0.5000-0.5000 (  9780 PWs)   bands (ev):

   -64.2708 -64.2708 -64.2708 -64.2708 -31.1080 -31.1080 -31.1080 -31.1080
   -31.0501 -31.0501 -31.0501 -31.0501 -31.0411 -31.0411 -31.0411 -31.0411
    -7.8453  -7.8453  -7.8453  -7.8453   3.9162   3.9162   3.9162   3.9162
     6.8760   6.8760   6.8760   6.8760   7.4313   7.4313   7.4313   7.4313

          k = 0.3750 0.3750 0.3750 (  9811 PWs)   bands (ev):

   -64.2721 -64.2704 -64.2704 -64.2704 -31.1119 -31.1119 -31.1119 -31.1056
   -31.0481 -31.0481 -31.0481 -31.0439 -31.0439 -31.0439 -31.0397 -31.0397
    -8.0272  -7.7750  -7.7750  -7.7750   3.7451   3.7451   3.7451   4.0261
     6.9404   6.9404   6.9404   7.3203   7.3203   7.3203   7.5188   7.5188

          k = 0.3750 0.3750-0.5000 (  9822 PWs)   bands (ev):

   -64.2713 -64.2713 -64.2704 -64.2704 -31.1143 -31.1143 -31.1113 -31.1113
   -31.0472 -31.0472 -31.0428 -31.0428 -31.0418 -31.0418 -31.0417 -31.0417
    -7.8912  -7.8912  -7.7629  -7.7629   3.6400   3.6400   3.7733   3.7733
     7.0188   7.0188   7.3542   7.3542   7.3577   7.3577   7.4182   7.4182

          k = 0.3750-0.5000-0.5000 (  9812 PWs)   bands (ev):

   -64.2708 -64.2708 -64.2708 -64.2708 -31.1153 -31.1153 -31.1153 -31.1153
   -31.0434 -31.0434 -31.0434 -31.0434 -31.0410 -31.0410 -31.0410 -31.0410
    -7.8154  -7.8154  -7.8154  -7.8154   3.5936   3.5936   3.5936   3.5936
     7.2790   7.2790   7.2790   7.2790   7.4315   7.4315   7.4315   7.4315

          k =-0.5000-0.5000-0.5000 (  9808 PWs)   bands (ev):

   -64.2708 -64.2708 -64.2708 -64.2708 -31.1180 -31.1180 -31.1180 -31.1180
   -31.0410 -31.0410 -31.0410 -31.0410 -31.0410 -31.0410 -31.0410 -31.0410
    -7.8029  -7.8029  -7.8029  -7.8029   3.4769   3.4769   3.4769   3.4769
     7.4316   7.4316   7.4316   7.4316   7.4316   7.4316   7.4316   7.4316

     highest occupied level (ev):     8.0710

!    total energy              =    -608.40821446 Ry
     Harris-Foulkes estimate   =    -608.40821446 Ry
     estimated scf accuracy    <          1.8E-13 Ry

     The total energy is the sum of the following terms:

     one-electron contribution =    -297.15857690 Ry
     hartree contribution      =     165.98481172 Ry
     xc contribution           =     -97.99042380 Ry
     ewald contribution        =    -379.24402548 Ry

     convergence has been achieved in  11 iterations

     Forces acting on atoms (cartesian axes, Ry/au):

     atom    1 type  1   force =     0.00000000    0.00000000    0.00000000
     atom    2 type  1   force =     0.00000000    0.00000000    0.00000000
     atom    3 type  1   force =     0.00000000    0.00000000   -0.00000000
     atom    4 type  1   force =     0.00000000    0.00000000    0.00000000
     atom    5 type  2   force =     0.00000000   -0.00000000   -0.00000000
     atom    6 type  2   force =     0.00000000    0.00000000   -0.00000000
     atom    7 type  2   force =     0.00000000    0.00000000    0.00000000
     atom    8 type  2   force =     0.00000000    0.00000000    0.00000000

     Total force =     0.000000     Total SCF correction =     0.000000


     Computing stress (Cartesian axis) and pressure

          total   stress  (Ry/bohr**3)                   (kbar)     P=   48.27
   0.00032812   0.00000000   0.00000000         48.27      0.00      0.00
   0.00000000   0.00032812   0.00000000          0.00     48.27      0.00
   0.00000000   0.00000000   0.00032812          0.00      0.00     48.27


     Writing output data file MgO.save/
 
     init_run     :      1.77s CPU      1.95s WALL (       2 calls)
     electrons    :     69.65s CPU     71.63s WALL (       3 calls)
     update_pot   :      0.31s CPU      0.31s WALL (       1 calls)
     forces       :      0.85s CPU      0.85s WALL (       3 calls)
     stress       :      2.00s CPU      2.00s WALL (       3 calls)

     Called by init_run:
     wfcinit      :      1.41s CPU      1.48s WALL (       2 calls)
     potinit      :      0.13s CPU      0.14s WALL (       2 calls)
     hinit0       :      0.17s CPU      0.24s WALL (       2 calls)

     Called by electrons:
     c_bands      :     61.36s CPU     62.86s WALL (      33 calls)
     sum_band     :      7.99s CPU      8.24s WALL (      33 calls)
     v_of_rho     :      0.24s CPU      0.24s WALL (      35 calls)
     mix_rho      :      0.06s CPU      0.06s WALL (      33 calls)

     Called by c_bands:
     init_us_2    :      0.89s CPU      0.93s WALL (    2590 calls)
     cegterg      :     57.93s CPU     59.35s WALL (    1155 calls)

     Called by sum_band:

     Called by *egterg:
     h_psi        :     43.83s CPU     45.19s WALL (    3604 calls)
     g_psi        :      0.30s CPU      0.30s WALL (    2379 calls)
     cdiaghg      :      7.29s CPU      7.33s WALL (    3464 calls)

     Called by h_psi:
     h_psi:pot    :     43.54s CPU     44.90s WALL (    3604 calls)
     h_psi:calbec :      3.32s CPU      3.39s WALL (    3604 calls)
     vloc_psi     :     37.59s CPU     38.86s WALL (    3604 calls)
     add_vuspsi   :      2.61s CPU      2.63s WALL (    3604 calls)

     General routines
     calbec       :      3.77s CPU      3.84s WALL (    4129 calls)
     fft          :      0.17s CPU      0.22s WALL (     424 calls)
     ffts         :      0.01s CPU      0.01s WALL (      33 calls)
     fftw         :     41.75s CPU     43.17s WALL (  236430 calls)
 
     Parallel routines
     fft_scatt_xy :      4.37s CPU      4.51s WALL (  236887 calls)
     fft_scatt_yz :     17.91s CPU     18.62s WALL (  236887 calls)
 
     PWSCF        :   1m15.02s CPU   1m22.63s WALL

 
   This run was terminated on:  11:38: 9  11Sep2020            

=------------------------------------------------------------------------------=
   JOB DONE.
=------------------------------------------------------------------------------=
Starting epilogue... Fri Sep 11 11:38:09 CEST 2020
=== JOB_STATISTICS ===
=== current date     : Fri Sep 11 11:38:09 CEST 2020
= Job-ID             : 1347259.eadm
= Job-Name           : MoS2.phon
= Queue              : devel
= PBS_O_WORKDIR      : /home/hpc/rzku/phyv025h/Exercise_sheet_2/Exercise_1
= Requested resources: ncpus=1,neednodes=1:ppn=40,nodes=1:ppn=40,walltime=01:00:00
= Used resources     : cput=00:27:21,mem=1792464kb,vmem=11229616kb,walltime=00:01:25
= Node list          : e0108
= AccessKey          : 34aa0499
======================
Power management available, setting all CPUs to ondemand govenor
End of epilogue: Fri Sep 11 11:38:09 CEST 2020
