Starting prologue... Fri Sep 11 11:36:32 CEST 2020
Master node: e0107
Kill all process from other users
Adjust oom killer config
Clearing buffers and caches on the nodes.
Power management available, enabling ondemand governor
End of prologue: Fri Sep 11 11:36:39 CEST 2020
/home/hpc/rzku/phyv025h/Exercise_sheet_2/Exercise_1

     Program PWSCF v.6.4.1 starts on 11Sep2020 at 11:36:41 

     This program is part of the open-source Quantum ESPRESSO suite
     for quantum simulation of materials; please cite
         "P. Giannozzi et al., J. Phys.:Condens. Matter 21 395502 (2009);
         "P. Giannozzi et al., J. Phys.:Condens. Matter 29 465901 (2017);
          URL http://www.quantum-espresso.org", 
     in publications or presentations arising from this work. More details at
     http://www.quantum-espresso.org/quote

     Parallel version (MPI & OpenMP), running on      20 processor cores
     Number of MPI processes:                20
     Threads/MPI process:                     1

     MPI processes distributed on     1 nodes
     R & G space division:  proc/nbgrp/npool/nimage =      20
     Reading input from /home/hpc/rzku/phyv025h/Exercise_sheet_2/Exercise_1/MgO_d2.in

     Current dimensions of program PWSCF are:
     Max number of different atomic species (ntypx) = 10
     Max number of k-points (npk) =  40000
     Max angular momentum in pseudopotentials (lmaxx) =  3

     IMPORTANT: XC functional enforced from input :
     Exchange-correlation      = PBESOL ( 1  4 10  8 0 0)
     Any further DFT definition will be discarded
     Please, verify this is what you really want


     Subspace diagonalization in iterative solution of the eigenvalue problem:
     a serial algorithm will be used

     Found symmetry operation: I + ( -0.5000 -0.5000  0.0000)
     This is a supercell, fractional translations are disabled
     Message from routine setup:
     DEPRECATED: symmetry with ibrav=0, use correct ibrav instead
 
     Parallelization info
     --------------------
     sticks:   dense  smooth     PW     G-vecs:    dense   smooth      PW
     Min         110     110     31                 3922     3922     591
     Max         111     111     32                 3927     3927     594
     Sum        2217    2217    633                78517    78517   11837
 


     bravais-lattice index     =            0
     lattice parameter (alat)  =       7.9557  a.u.
     unit-cell volume          =     503.5503 (a.u.)^3
     number of atoms/cell      =            8
     number of atomic types    =            2
     number of electrons       =        64.00
     number of Kohn-Sham states=           32
     kinetic-energy cutoff     =     110.0000  Ry
     charge density cutoff     =     440.0000  Ry
     convergence threshold     =      1.0E-10
     mixing beta               =       0.7000
     number of iterations used =            8  plain     mixing
     Exchange-correlation      = PBESOL ( 1  4 10  8 0 0)
     nstep                     =           50


     celldm(1)=   7.955747  celldm(2)=   0.000000  celldm(3)=   0.000000
     celldm(4)=   0.000000  celldm(5)=   0.000000  celldm(6)=   0.000000

     crystal axes: (cart. coord. in units of alat)
               a(1) = (   1.000000   0.000000   0.000000 )  
               a(2) = (   0.000000   1.000000   0.000000 )  
               a(3) = (   0.000000   0.000000   1.000000 )  

     reciprocal axes: (cart. coord. in units 2 pi/alat)
               b(1) = (  1.000000  0.000000  0.000000 )  
               b(2) = (  0.000000  1.000000  0.000000 )  
               b(3) = (  0.000000  0.000000  1.000000 )  


     PseudoPot. # 1 for Mg read from file:
     ./Mg.nc.UPF
     MD5 check sum: 4c04d8c6e0476e83eaecaf72fa8acc4d
     Pseudo is Norm-conserving, Zval = 10.0
     Generated using ONCVPSP code by D. R. Hamann
     Using radial grid of 1510 points,  4 beta functions with: 
                l(1) =   0
                l(2) =   0
                l(3) =   1
                l(4) =   1

     PseudoPot. # 2 for O  read from file:
     ./O.nc.UPF
     MD5 check sum: 3e3f909f7470e8921608ab6b1f57bbae
     Pseudo is Norm-conserving + core correction, Zval =  6.0
     Generated using ONCVPSP code by D. R. Hamann
     Using radial grid of  936 points,  5 beta functions with: 
                l(1) =   0
                l(2) =   0
                l(3) =   1
                l(4) =   1
                l(5) =   2

     atomic species   valence    mass     pseudopotential
        Mg            10.00    24.30000     Mg( 1.00)
        O              6.00    16.00000     O ( 1.00)

     48 Sym. Ops., with inversion, found



   Cartesian axes

     site n.     atom                  positions (alat units)
         1           Mg  tau(   1) = (   0.0000000   0.0000000   0.0000000  )
         2           Mg  tau(   2) = (   0.5000000   0.5000000   0.0000000  )
         3           Mg  tau(   3) = (   0.5000000   0.0000000   0.5000000  )
         4           Mg  tau(   4) = (   0.0000000   0.5000000   0.5000000  )
         5           O   tau(   5) = (   0.5000000   0.0000000   0.0000000  )
         6           O   tau(   6) = (   0.0000000   0.5000000   0.0000000  )
         7           O   tau(   7) = (   0.0000000   0.0000000   0.5000000  )
         8           O   tau(   8) = (   0.5000000   0.5000000   0.5000000  )

     number of k points=    35
                       cart. coord. in units 2pi/alat
        k(    1) = (   0.0000000   0.0000000   0.0000000), wk =   0.0039062
        k(    2) = (   0.0000000   0.0000000   0.1250000), wk =   0.0234375
        k(    3) = (   0.0000000   0.0000000   0.2500000), wk =   0.0234375
        k(    4) = (   0.0000000   0.0000000   0.3750000), wk =   0.0234375
        k(    5) = (   0.0000000   0.0000000  -0.5000000), wk =   0.0117188
        k(    6) = (   0.0000000   0.1250000   0.1250000), wk =   0.0468750
        k(    7) = (   0.0000000   0.1250000   0.2500000), wk =   0.0937500
        k(    8) = (   0.0000000   0.1250000   0.3750000), wk =   0.0937500
        k(    9) = (   0.0000000   0.1250000  -0.5000000), wk =   0.0468750
        k(   10) = (   0.0000000   0.2500000   0.2500000), wk =   0.0468750
        k(   11) = (   0.0000000   0.2500000   0.3750000), wk =   0.0937500
        k(   12) = (   0.0000000   0.2500000  -0.5000000), wk =   0.0468750
        k(   13) = (   0.0000000   0.3750000   0.3750000), wk =   0.0468750
        k(   14) = (   0.0000000   0.3750000  -0.5000000), wk =   0.0468750
        k(   15) = (   0.0000000  -0.5000000  -0.5000000), wk =   0.0117188
        k(   16) = (   0.1250000   0.1250000   0.1250000), wk =   0.0312500
        k(   17) = (   0.1250000   0.1250000   0.2500000), wk =   0.0937500
        k(   18) = (   0.1250000   0.1250000   0.3750000), wk =   0.0937500
        k(   19) = (   0.1250000   0.1250000  -0.5000000), wk =   0.0468750
        k(   20) = (   0.1250000   0.2500000   0.2500000), wk =   0.0937500
        k(   21) = (   0.1250000   0.2500000   0.3750000), wk =   0.1875000
        k(   22) = (   0.1250000   0.2500000  -0.5000000), wk =   0.0937500
        k(   23) = (   0.1250000   0.3750000   0.3750000), wk =   0.0937500
        k(   24) = (   0.1250000   0.3750000  -0.5000000), wk =   0.0937500
        k(   25) = (   0.1250000  -0.5000000  -0.5000000), wk =   0.0234375
        k(   26) = (   0.2500000   0.2500000   0.2500000), wk =   0.0312500
        k(   27) = (   0.2500000   0.2500000   0.3750000), wk =   0.0937500
        k(   28) = (   0.2500000   0.2500000  -0.5000000), wk =   0.0468750
        k(   29) = (   0.2500000   0.3750000   0.3750000), wk =   0.0937500
        k(   30) = (   0.2500000   0.3750000  -0.5000000), wk =   0.0937500
        k(   31) = (   0.2500000  -0.5000000  -0.5000000), wk =   0.0234375
        k(   32) = (   0.3750000   0.3750000   0.3750000), wk =   0.0312500
        k(   33) = (   0.3750000   0.3750000  -0.5000000), wk =   0.0468750
        k(   34) = (   0.3750000  -0.5000000  -0.5000000), wk =   0.0234375
        k(   35) = (  -0.5000000  -0.5000000  -0.5000000), wk =   0.0039062

     Dense  grid:    78517 G-vectors     FFT dimensions: (  54,  54,  54)

     Estimated max dynamical RAM per process >      20.39 MB

     Estimated total dynamical RAM >     407.74 MB

     Initial potential from superposition of free atoms

     starting charge   63.99678, renormalised to   64.00000
     Starting wfcs are   36 randomized atomic wfcs

     total cpu time spent up to now is        1.8 secs

     Self-consistent Calculation

     iteration #  1     ecut=   110.00 Ry     beta= 0.70
     Davidson diagonalization with overlap
     ethr =  1.00E-02,  avg # of iterations =  2.0

     total cpu time spent up to now is        3.8 secs

     total energy              =    -606.34500145 Ry
     Harris-Foulkes estimate   =    -607.31763241 Ry
     estimated scf accuracy    <       1.34035154 Ry

     iteration #  2     ecut=   110.00 Ry     beta= 0.70
     Davidson diagonalization with overlap
     ethr =  2.09E-03,  avg # of iterations =  2.9

     total cpu time spent up to now is        6.1 secs

     total energy              =    -606.67869257 Ry
     Harris-Foulkes estimate   =    -607.26177974 Ry
     estimated scf accuracy    <       1.19363968 Ry

     iteration #  3     ecut=   110.00 Ry     beta= 0.70
     Davidson diagonalization with overlap
     ethr =  1.87E-03,  avg # of iterations =  2.0

     total cpu time spent up to now is        8.1 secs

     total energy              =    -606.91619415 Ry
     Harris-Foulkes estimate   =    -606.91726030 Ry
     estimated scf accuracy    <       0.00566706 Ry

     iteration #  4     ecut=   110.00 Ry     beta= 0.70
     Davidson diagonalization with overlap
     ethr =  8.85E-06,  avg # of iterations =  2.0

     total cpu time spent up to now is       10.2 secs

     total energy              =    -606.91728304 Ry
     Harris-Foulkes estimate   =    -606.91730824 Ry
     estimated scf accuracy    <       0.00006017 Ry

     iteration #  5     ecut=   110.00 Ry     beta= 0.70
     Davidson diagonalization with overlap
     ethr =  9.40E-08,  avg # of iterations =  2.2

     total cpu time spent up to now is       12.2 secs

     total energy              =    -606.91729024 Ry
     Harris-Foulkes estimate   =    -606.91729009 Ry
     estimated scf accuracy    <       0.00000477 Ry

     iteration #  6     ecut=   110.00 Ry     beta= 0.70
     Davidson diagonalization with overlap
     ethr =  7.45E-09,  avg # of iterations =  2.0

     total cpu time spent up to now is       14.3 secs

     total energy              =    -606.91729070 Ry
     Harris-Foulkes estimate   =    -606.91729083 Ry
     estimated scf accuracy    <       0.00000026 Ry

     iteration #  7     ecut=   110.00 Ry     beta= 0.70
     Davidson diagonalization with overlap
     ethr =  4.13E-10,  avg # of iterations =  2.0

     total cpu time spent up to now is       16.3 secs

     total energy              =    -606.91729069 Ry
     Harris-Foulkes estimate   =    -606.91729072 Ry
     estimated scf accuracy    <       0.00000005 Ry

     iteration #  8     ecut=   110.00 Ry     beta= 0.70
     Davidson diagonalization with overlap
     ethr =  7.88E-11,  avg # of iterations =  2.0

     total cpu time spent up to now is       18.4 secs

     total energy              =    -606.91729070 Ry
     Harris-Foulkes estimate   =    -606.91729070 Ry
     estimated scf accuracy    <          5.3E-09 Ry

     iteration #  9     ecut=   110.00 Ry     beta= 0.70
     Davidson diagonalization with overlap
     ethr =  8.24E-12,  avg # of iterations =  2.0

     total cpu time spent up to now is       20.5 secs

     total energy              =    -606.91729070 Ry
     Harris-Foulkes estimate   =    -606.91729070 Ry
     estimated scf accuracy    <          5.6E-10 Ry

     iteration # 10     ecut=   110.00 Ry     beta= 0.70
     Davidson diagonalization with overlap
     ethr =  8.76E-13,  avg # of iterations =  2.0

     total cpu time spent up to now is       22.8 secs

     End of self-consistent calculation

          k = 0.0000 0.0000 0.0000 (  9795 PWs)   bands (ev):

   -64.0567 -64.0448 -64.0448 -64.0448 -30.8101 -30.8101 -30.8101 -30.7638
   -30.7638 -30.7638 -30.7638 -30.7638 -30.7638 -30.7338 -30.7338 -30.7338
    -9.2371  -7.6636  -7.6636  -7.6636   3.8632   3.8632   3.8632   6.6184
     6.6184   6.6184   6.6184   6.6184   6.6184   7.9746   7.9746   7.9746

          k = 0.0000 0.0000 0.1250 (  9811 PWs)   bands (ev):

   -64.0562 -64.0452 -64.0448 -64.0448 -30.8083 -30.8083 -30.8076 -30.7655
   -30.7655 -30.7641 -30.7641 -30.7626 -30.7626 -30.7371 -30.7349 -30.7349
    -9.1787  -7.7243  -7.6541  -7.6540   3.9392   3.9392   3.9519   6.4642
     6.4642   6.5519   6.5519   6.6618   6.6618   7.6557   7.9124   7.9124

          k = 0.0000 0.0000 0.2500 (  9807 PWs)   bands (ev):

   -64.0549 -64.0465 -64.0448 -64.0448 -30.8033 -30.8033 -30.8002 -30.7705
   -30.7705 -30.7649 -30.7649 -30.7594 -30.7594 -30.7463 -30.7382 -30.7382
    -9.0117  -7.8973  -7.6308  -7.6308   4.1636   4.1636   4.2219   6.0609
     6.0609   6.3959   6.3959   6.7881   6.7881   6.9240   7.7410   7.7410

          k = 0.0000 0.0000 0.3750 (  9814 PWs)   bands (ev):

   -64.0530 -64.0484 -64.0448 -64.0448 -30.7957 -30.7957 -30.7887 -30.7780
   -30.7780 -30.7657 -30.7657 -30.7596 -30.7545 -30.7545 -30.7430 -30.7430
    -8.7594  -8.1557  -7.6074  -7.6074   4.5240   4.5240   4.6782   5.5335
     5.5335   6.0875   6.2457   6.2457   6.9856   6.9856   7.4991   7.4991

          k = 0.0000 0.0000-0.5000 (  9890 PWs)   bands (ev):

   -64.0507 -64.0507 -64.0448 -64.0448 -30.7869 -30.7869 -30.7869 -30.7869
   -30.7745 -30.7745 -30.7660 -30.7660 -30.7487 -30.7487 -30.7487 -30.7487
    -8.4589  -8.4589  -7.5976  -7.5976   4.9957   4.9957   4.9957   4.9957
     5.3122   5.3122   6.1850   6.1850   7.2333   7.2333   7.2333   7.2333

          k = 0.0000 0.1250 0.1250 (  9811 PWs)   bands (ev):

   -64.0558 -64.0452 -64.0452 -64.0448 -30.8066 -30.8063 -30.8063 -30.7697
   -30.7644 -30.7644 -30.7627 -30.7627 -30.7618 -30.7421 -30.7361 -30.7341
    -9.1215  -7.7120  -7.7120  -7.6468   4.0120   4.0120   4.0146   6.1580
     6.5104   6.5104   6.6070   6.6070   6.6723   7.3185   7.8457   7.9286

          k = 0.0000 0.1250 0.2500 (  9819 PWs)   bands (ev):

   -64.0545 -64.0464 -64.0451 -64.0448 -30.8026 -30.8016 -30.8002 -30.7759
   -30.7693 -30.7628 -30.7610 -30.7607 -30.7588 -30.7519 -30.7394 -30.7360
    -8.9580  -7.8775  -7.6807  -7.6305   4.1875   4.2372   4.2388   5.7104
     6.1136   6.4857   6.6396   6.6449   6.6472   6.7633   7.6621   7.8017

          k = 0.0000 0.1250 0.3750 (  9811 PWs)   bands (ev):

   -64.0527 -64.0483 -64.0451 -64.0449 -30.7970 -30.7942 -30.7905 -30.7830
   -30.7767 -30.7646 -30.7625 -30.7610 -30.7560 -30.7531 -30.7443 -30.7405
    -8.7118  -8.1261  -7.6453  -7.6180   4.4644   4.5946   4.6340   5.2475
     5.5934   5.8931   6.3909   6.5066   6.8554   6.9975   7.4033   7.5625

          k = 0.0000 0.1250-0.5000 (  9828 PWs)   bands (ev):

   -64.0505 -64.0505 -64.0450 -64.0450 -30.7902 -30.7902 -30.7854 -30.7854
   -30.7781 -30.7781 -30.7618 -30.7618 -30.7502 -30.7502 -30.7466 -30.7466
    -8.4195  -8.4195  -7.6217  -7.6217   4.8239   4.8239   5.0618   5.0618
     5.1964   5.1964   6.3969   6.3969   7.1195   7.1195   7.2773   7.2773

          k = 0.0000 0.2500 0.2500 (  9769 PWs)   bands (ev):

   -64.0534 -64.0462 -64.0462 -64.0450 -30.7998 -30.7998 -30.7968 -30.7835
   -30.7658 -30.7658 -30.7626 -30.7573 -30.7573 -30.7565 -30.7429 -30.7353
    -8.8052  -7.8248  -7.8248  -7.6344   4.2899   4.2899   4.4544   5.2354
     6.0779   6.2675   6.2675   6.7218   6.7218   6.8260   7.4458   7.7936

          k = 0.0000 0.2500 0.3750 (  9818 PWs)   bands (ev):

   -64.0518 -64.0479 -64.0460 -64.0453 -30.7984 -30.7942 -30.7903 -30.7897
   -30.7744 -30.7729 -30.7605 -30.7555 -30.7544 -30.7501 -30.7481 -30.7379
    -8.5770  -8.0448  -7.7569  -7.6532   4.3847   4.5260   4.8024   4.8346
     5.4625   5.7688   6.5090   6.7230   6.8494   7.0352   7.1431   7.6315

          k = 0.0000 0.2500-0.5000 (  9844 PWs)   bands (ev):

   -64.0498 -64.0498 -64.0456 -64.0456 -30.7954 -30.7954 -30.7855 -30.7855
   -30.7812 -30.7812 -30.7543 -30.7543 -30.7542 -30.7542 -30.7432 -30.7432
    -8.3093  -8.3093  -7.6948  -7.6948   4.5539   4.5539   4.9232   4.9232
     5.2556   5.2556   6.7834   6.7834   6.8136   6.8136   7.3586   7.3586

          k = 0.0000 0.3750 0.3750 (  9827 PWs)   bands (ev):

   -64.0504 -64.0473 -64.0473 -64.0459 -30.7973 -30.7973 -30.7957 -30.7845
   -30.7829 -30.7671 -30.7671 -30.7537 -30.7496 -30.7478 -30.7478 -30.7381
    -8.3785  -7.9326  -7.9326  -7.7191   4.4215   4.4215   4.5363   5.0006
     5.1340   6.0457   6.0457   6.7837   7.0554   7.0888   7.0888   7.5825

          k = 0.0000 0.3750-0.5000 (  9802 PWs)   bands (ev):

   -64.0488 -64.0488 -64.0466 -64.0466 -30.7981 -30.7981 -30.7926 -30.7926
   -30.7750 -30.7750 -30.7604 -30.7604 -30.7474 -30.7474 -30.7416 -30.7416
    -8.1509  -8.1509  -7.8162  -7.8162   4.4039   4.4039   4.6312   4.6312
     5.5635   5.5636   6.3980   6.3980   7.1170   7.1170   7.3932   7.3932

          k = 0.0000-0.5000-0.5000 (  9748 PWs)   bands (ev):

   -64.0477 -64.0477 -64.0477 -64.0477 -30.7972 -30.7972 -30.7972 -30.7972
   -30.7677 -30.7677 -30.7677 -30.7677 -30.7430 -30.7430 -30.7430 -30.7430
    -7.9759  -7.9759  -7.9759  -7.9759   4.4349   4.4349   4.4349   4.4349
     5.9591   5.9591   5.9591   5.9591   7.3227   7.3227   7.3227   7.3227

          k = 0.1250 0.1250 0.1250 (  9819 PWs)   bands (ev):

   -64.0553 -64.0452 -64.0452 -64.0452 -30.8051 -30.8051 -30.8051 -30.7678
   -30.7678 -30.7678 -30.7607 -30.7607 -30.7607 -30.7471 -30.7351 -30.7351
    -9.0655  -7.7019  -7.7019  -7.7019   4.0669   4.0669   4.0669   6.2370
     6.2370   6.2370   6.7130   6.7130   6.7130   7.0047   7.8718   7.8718

          k = 0.1250 0.1250 0.2500 (  9822 PWs)   bands (ev):

   -64.0541 -64.0464 -64.0452 -64.0452 -30.8020 -30.8020 -30.8006 -30.7728
   -30.7728 -30.7625 -30.7595 -30.7595 -30.7577 -30.7574 -30.7381 -30.7364
    -8.9057  -7.8598  -7.6775  -7.6775   4.2217   4.2217   4.2405   5.8401
     5.8401   6.3734   6.4558   6.6883   6.6883   6.8313   7.7149   7.7588

          k = 0.1250 0.1250 0.3750 (  9809 PWs)   bands (ev):

   -64.0524 -64.0482 -64.0452 -64.0452 -30.7979 -30.7979 -30.7928 -30.7779
   -30.7779 -30.7697 -30.7592 -30.7592 -30.7553 -30.7532 -30.7426 -30.7409
    -8.6656  -8.0984  -7.6529  -7.6529   4.4363   4.4363   4.5662   5.4663
     5.4663   5.6810   6.5873   6.5873   6.7716   7.0158   7.4867   7.4923

          k = 0.1250 0.1250-0.5000 (  9844 PWs)   bands (ev):

   -64.0503 -64.0503 -64.0452 -64.0452 -30.7957 -30.7957 -30.7821 -30.7821
   -30.7805 -30.7805 -30.7592 -30.7592 -30.7479 -30.7479 -30.7476 -30.7476
    -8.3818  -8.3818  -7.6426  -7.6426   4.5710   4.5710   5.0551   5.0551
     5.2787   5.2788   6.5343   6.5343   7.1342   7.1342   7.2462   7.2462

          k = 0.1250 0.2500 0.2500 (  9801 PWs)   bands (ev):

   -64.0531 -64.0462 -64.0462 -64.0453 -30.8014 -30.8014 -30.8009 -30.7768
   -30.7681 -30.7658 -30.7658 -30.7560 -30.7560 -30.7557 -30.7405 -30.7361
    -8.7569  -7.8136  -7.8136  -7.6730   4.2431   4.2431   4.2943   5.5144
     5.8141   6.1583   6.1584   6.8307   6.8307   6.8585   7.5542   7.7517

          k = 0.1250 0.2500 0.3750 (  9792 PWs)   bands (ev):

   -64.0515 -64.0478 -64.0460 -64.0455 -30.8019 -30.8008 -30.7977 -30.7798
   -30.7774 -30.7700 -30.7579 -30.7543 -30.7536 -30.7503 -30.7451 -30.7385
    -8.5353  -8.0231  -7.7561  -7.6794   4.2510   4.3218   4.4001   5.2264
     5.4079   5.8452   6.5515   6.8090   6.8846   7.0538   7.2831   7.5921

          k = 0.1250 0.2500-0.5000 (  9822 PWs)   bands (ev):

   -64.0497 -64.0497 -64.0458 -64.0458 -30.8016 -30.8016 -30.7902 -30.7902
   -30.7745 -30.7745 -30.7533 -30.7533 -30.7510 -30.7510 -30.7438 -30.7438
    -8.2767  -8.2767  -7.7071  -7.7071   4.2828   4.2828   4.7335   4.7335
     5.5613   5.5613   6.8370   6.8370   6.9410   6.9410   7.3284   7.3284

          k = 0.1250 0.3750 0.3750 (  9808 PWs)   bands (ev):

   -64.0502 -64.0473 -64.0473 -64.0460 -30.8037 -30.8022 -30.8022 -30.7902
   -30.7737 -30.7627 -30.7627 -30.7499 -30.7492 -30.7477 -30.7477 -30.7386
    -8.3443  -7.9204  -7.9204  -7.7330   4.1801   4.2259   4.2259   4.7574
     5.5756   6.2333   6.2333   6.9773   7.0742   7.1047   7.1047   7.5610

          k = 0.1250 0.3750-0.5000 (  9794 PWs)   bands (ev):

   -64.0488 -64.0488 -64.0467 -64.0467 -30.8044 -30.8044 -30.7981 -30.7981
   -30.7683 -30.7683 -30.7560 -30.7560 -30.7471 -30.7471 -30.7419 -30.7419
    -8.1269  -8.1269  -7.8165  -7.8165   4.1365   4.1365   4.4013   4.4013
     5.8813   5.8813   6.6155   6.6156   7.1320   7.1320   7.3821   7.3821

          k = 0.1250-0.5000-0.5000 (  9796 PWs)   bands (ev):

   -64.0477 -64.0477 -64.0477 -64.0477 -30.8032 -30.8032 -30.8032 -30.8032
   -30.7620 -30.7620 -30.7620 -30.7620 -30.7430 -30.7430 -30.7430 -30.7430
    -7.9633  -7.9633  -7.9633  -7.9633   4.1801   4.1801   4.1801   4.1801
     6.2436   6.2436   6.2436   6.2436   7.3227   7.3227   7.3227   7.3227

          k = 0.2500 0.2500 0.2500 (  9825 PWs)   bands (ev):

   -64.0522 -64.0462 -64.0462 -64.0462 -30.8049 -30.8049 -30.8049 -30.7792
   -30.7655 -30.7655 -30.7655 -30.7534 -30.7534 -30.7534 -30.7384 -30.7384
    -8.6201  -7.7865  -7.7865  -7.7865   4.1195   4.1195   4.1195   5.2811
     6.0421   6.0421   6.0421   6.9525   6.9525   6.9525   7.6348   7.6348

          k = 0.2500 0.2500 0.3750 (  9809 PWs)   bands (ev):

   -64.0508 -64.0476 -64.0462 -64.0462 -30.8082 -30.8082 -30.8047 -30.7906
   -30.7651 -30.7651 -30.7544 -30.7512 -30.7512 -30.7499 -30.7418 -30.7399
    -8.4185  -7.9652  -7.7591  -7.7591   3.9860   3.9860   4.1225   4.7471
     6.0173   6.0173   6.6067   6.9873   6.9873   7.0981   7.4666   7.4867

          k = 0.2500 0.2500-0.5000 (  9786 PWs)   bands (ev):

   -64.0492 -64.0492 -64.0462 -64.0462 -30.8095 -30.8095 -30.7997 -30.7997
   -30.7649 -30.7649 -30.7504 -30.7504 -30.7458 -30.7458 -30.7455 -30.7455
    -8.1872  -8.1872  -7.7477  -7.7477   3.9289   3.9289   4.3389   4.3389
     6.0245   6.0245   6.9844   6.9844   7.1168   7.1168   7.2777   7.2777

          k = 0.2500 0.3750 0.3750 (  9834 PWs)   bands (ev):

   -64.0497 -64.0473 -64.0473 -64.0465 -30.8128 -30.8108 -30.8108 -30.8010
   -30.7610 -30.7551 -30.7551 -30.7479 -30.7473 -30.7473 -30.7442 -30.7398
    -8.2500  -7.8907  -7.8907  -7.7782   3.7796   3.8613   3.8613   4.2845
     6.2260   6.5726   6.5726   7.1280   7.1493   7.1493   7.2864   7.5006

          k = 0.2500 0.3750-0.5000 (  9810 PWs)   bands (ev):

   -64.0485 -64.0485 -64.0469 -64.0469 -30.8138 -30.8138 -30.8083 -30.8083
   -30.7576 -30.7576 -30.7486 -30.7486 -30.7463 -30.7463 -30.7426 -30.7426
    -8.0627  -8.0627  -7.8229  -7.8229   3.7312   3.7312   3.9676   3.9676
     6.4297   6.4297   7.0014   7.0014   7.1754   7.1754   7.3490   7.3490

          k = 0.2500-0.5000-0.5000 (  9780 PWs)   bands (ev):

   -64.0477 -64.0477 -64.0477 -64.0477 -30.8134 -30.8134 -30.8134 -30.8134
   -30.7525 -30.7525 -30.7525 -30.7525 -30.7430 -30.7430 -30.7430 -30.7430
    -7.9326  -7.9326  -7.9326  -7.9326   3.7456   3.7456   3.7456   3.7456
     6.7546   6.7546   6.7546   6.7546   7.3229   7.3229   7.3229   7.3229

          k = 0.3750 0.3750 0.3750 (  9811 PWs)   bands (ev):

   -64.0490 -64.0473 -64.0473 -64.0473 -30.8176 -30.8176 -30.8176 -30.8109
   -30.7504 -30.7504 -30.7504 -30.7460 -30.7460 -30.7460 -30.7416 -30.7416
    -8.1182  -7.8607  -7.8607  -7.8607   3.5721   3.5721   3.5721   3.8571
     6.8199   6.8199   6.8199   7.2102   7.2102   7.2102   7.4118   7.4118

          k = 0.3750 0.3750-0.5000 (  9822 PWs)   bands (ev):

   -64.0481 -64.0481 -64.0473 -64.0473 -30.8200 -30.8200 -30.8169 -30.8169
   -30.7494 -30.7494 -30.7448 -30.7448 -30.7438 -30.7438 -30.7437 -30.7437
    -7.9792  -7.9792  -7.8481  -7.8481   3.4654   3.4654   3.6007   3.6007
     6.9003   6.9003   7.2445   7.2445   7.2467   7.2467   7.3097   7.3097

          k = 0.3750-0.5000-0.5000 (  9812 PWs)   bands (ev):

   -64.0477 -64.0477 -64.0477 -64.0477 -30.8211 -30.8211 -30.8211 -30.8211
   -30.7455 -30.7455 -30.7455 -30.7455 -30.7430 -30.7430 -30.7430 -30.7430
    -7.9015  -7.9015  -7.9015  -7.9015   3.4183   3.4183   3.4183   3.4183
     7.1667   7.1667   7.1667   7.1667   7.3230   7.3230   7.3230   7.3230

          k =-0.5000-0.5000-0.5000 (  9808 PWs)   bands (ev):

   -64.0477 -64.0477 -64.0477 -64.0477 -30.8239 -30.8239 -30.8239 -30.8239
   -30.7430 -30.7430 -30.7430 -30.7430 -30.7430 -30.7430 -30.7430 -30.7430
    -7.8885  -7.8885  -7.8885  -7.8885   3.2999   3.2999   3.2999   3.2999
     7.3230   7.3230   7.3230   7.3231   7.3231   7.3231   7.3231   7.3231

     highest occupied level (ev):     7.9746

!    total energy              =    -606.91729070 Ry
     Harris-Foulkes estimate   =    -606.91729070 Ry
     estimated scf accuracy    <          1.3E-11 Ry

     The total energy is the sum of the following terms:

     one-electron contribution =    -296.59870692 Ry
     hartree contribution      =     165.23044633 Ry
     xc contribution           =     -96.29655442 Ry
     ewald contribution        =    -379.25247568 Ry

     convergence has been achieved in  10 iterations

     Forces acting on atoms (cartesian axes, Ry/au):

     atom    1 type  1   force =     0.00000000   -0.00000000    0.00000000
     atom    2 type  1   force =     0.00000000    0.00000000    0.00000000
     atom    3 type  1   force =     0.00000000    0.00000000    0.00000000
     atom    4 type  1   force =     0.00000000    0.00000000    0.00000000
     atom    5 type  2   force =     0.00000000    0.00000000    0.00000000
     atom    6 type  2   force =     0.00000000    0.00000000    0.00000000
     atom    7 type  2   force =     0.00000000    0.00000000    0.00000000
     atom    8 type  2   force =     0.00000000    0.00000000    0.00000000

     Total force =     0.000000     Total SCF correction =     0.000000


     Computing stress (Cartesian axis) and pressure

          total   stress  (Ry/bohr**3)                   (kbar)     P=    8.81
   0.00005986   0.00000000   0.00000000          8.81      0.00      0.00
   0.00000000   0.00005986   0.00000000          0.00      8.81      0.00
   0.00000000   0.00000000   0.00005986          0.00      0.00      8.81


     BFGS Geometry Optimization

     number of scf cycles    =   1
     number of bfgs steps    =   0

     enthalpy new            =    -606.9172906983 Ry

     new trust radius        =       0.0067158809 bohr
     new conv_thr            =            1.0E-10 Ry

     new unit-cell volume =    505.81428 a.u.^3 (    74.95394 Ang^3 )
     density =      3.57124 g/cm^3

CELL_PARAMETERS (angstrom)
   4.216299900   0.000000000   0.000000000
   0.000000000   4.216299900   0.000000000
   0.000000000   0.000000000   4.216299900

ATOMIC_POSITIONS (crystal)
Mg       0.000000000  -0.000000000   0.000000000
Mg       0.500000000   0.500000000   0.000000000
Mg       0.500000000   0.000000000   0.500000000
Mg       0.000000000   0.500000000   0.500000000
O        0.500000000   0.000000000   0.000000000
O        0.000000000   0.500000000   0.000000000
O        0.000000000   0.000000000   0.500000000
O        0.500000000   0.500000000   0.500000000



     Writing output data file MgO.save/
     NEW-OLD atomic charge density approx. for the potential
     extrapolated charge   64.28644, renormalised to   64.00000

     total cpu time spent up to now is       24.3 secs

     Self-consistent Calculation

     iteration #  1     ecut=   110.00 Ry     beta= 0.70
     Davidson diagonalization with overlap
     ethr =  1.00E-06,  avg # of iterations =  3.0

     total cpu time spent up to now is       26.9 secs

     total energy              =    -606.91441052 Ry
     Harris-Foulkes estimate   =    -605.97118088 Ry
     estimated scf accuracy    <       0.00162701 Ry

     iteration #  2     ecut=   110.00 Ry     beta= 0.70
     Davidson diagonalization with overlap
     ethr =  2.54E-06,  avg # of iterations =  3.0

     total cpu time spent up to now is       30.0 secs

     total energy              =    -606.91722976 Ry
     Harris-Foulkes estimate   =    -606.91887621 Ry
     estimated scf accuracy    <       0.00452807 Ry

     iteration #  3     ecut=   110.00 Ry     beta= 0.70
     Davidson diagonalization with overlap
     ethr =  2.54E-06,  avg # of iterations =  2.0

     total cpu time spent up to now is       32.0 secs

     total energy              =    -606.91747288 Ry
     Harris-Foulkes estimate   =    -606.91761654 Ry
     estimated scf accuracy    <       0.00059318 Ry

     iteration #  4     ecut=   110.00 Ry     beta= 0.70
     Davidson diagonalization with overlap
     ethr =  9.27E-07,  avg # of iterations =  1.0

     total cpu time spent up to now is       33.6 secs

     total energy              =    -606.91732274 Ry
     Harris-Foulkes estimate   =    -606.91748456 Ry
     estimated scf accuracy    <       0.00031005 Ry

     iteration #  5     ecut=   110.00 Ry     beta= 0.70
     Davidson diagonalization with overlap
     ethr =  4.84E-07,  avg # of iterations =  2.0

     total cpu time spent up to now is       35.6 secs

     total energy              =    -606.91737042 Ry
     Harris-Foulkes estimate   =    -606.91737182 Ry
     estimated scf accuracy    <       0.00000237 Ry

     iteration #  6     ecut=   110.00 Ry     beta= 0.70
     Davidson diagonalization with overlap
     ethr =  3.71E-09,  avg # of iterations =  2.0

     total cpu time spent up to now is       37.6 secs

     total energy              =    -606.91737232 Ry
     Harris-Foulkes estimate   =    -606.91737124 Ry
     estimated scf accuracy    <       0.00000012 Ry

     iteration #  7     ecut=   110.00 Ry     beta= 0.70
     Davidson diagonalization with overlap
     ethr =  1.86E-10,  avg # of iterations =  3.0

     total cpu time spent up to now is       40.8 secs

     total energy              =    -606.91737021 Ry
     Harris-Foulkes estimate   =    -606.91737299 Ry
     estimated scf accuracy    <       0.00000501 Ry

     iteration #  8     ecut=   110.00 Ry     beta= 0.70
     Davidson diagonalization with overlap
     ethr =  1.86E-10,  avg # of iterations =  3.0

     total cpu time spent up to now is       44.0 secs

     total energy              =    -606.91737121 Ry
     Harris-Foulkes estimate   =    -606.91737121 Ry
     estimated scf accuracy    <       0.00000002 Ry

     iteration #  9     ecut=   110.00 Ry     beta= 0.70
     Davidson diagonalization with overlap
     ethr =  2.81E-11,  avg # of iterations =  1.0

     total cpu time spent up to now is       45.6 secs

     total energy              =    -606.91737121 Ry
     Harris-Foulkes estimate   =    -606.91737121 Ry
     estimated scf accuracy    <          8.7E-09 Ry

     iteration # 10     ecut=   110.00 Ry     beta= 0.70
     Davidson diagonalization with overlap
     ethr =  1.36E-11,  avg # of iterations =  1.0

     total cpu time spent up to now is       47.2 secs

     total energy              =    -606.91737121 Ry
     Harris-Foulkes estimate   =    -606.91737121 Ry
     estimated scf accuracy    <          1.3E-09 Ry

     iteration # 11     ecut=   110.00 Ry     beta= 0.70
     Davidson diagonalization with overlap
     ethr =  2.00E-12,  avg # of iterations =  2.0

     total cpu time spent up to now is       49.5 secs

     End of self-consistent calculation

          k = 0.0000 0.0000 0.0000 (  9795 PWs)   bands (ev):

   -64.1272 -64.1155 -64.1155 -64.1155 -30.8790 -30.8790 -30.8790 -30.8335
   -30.8335 -30.8335 -30.8335 -30.8335 -30.8335 -30.8040 -30.8040 -30.8040
    -9.2697  -7.7093  -7.7093  -7.7093   3.8261   3.8261   3.8261   6.5694
     6.5694   6.5694   6.5694   6.5694   6.5694   7.9194   7.9194   7.9194

          k = 0.0000 0.0000 0.1248 (  9811 PWs)   bands (ev):

   -64.1267 -64.1160 -64.1155 -64.1155 -30.8772 -30.8772 -30.8765 -30.8352
   -30.8352 -30.8338 -30.8338 -30.8323 -30.8323 -30.8072 -30.8051 -30.8051
    -9.2118  -7.7695  -7.6998  -7.6998   3.9019   3.9019   3.9141   6.4161
     6.4161   6.5032   6.5032   6.6126   6.6126   7.6006   7.8575   7.8575

          k = 0.0000 0.0000 0.2496 (  9807 PWs)   bands (ev):

   -64.1254 -64.1172 -64.1155 -64.1155 -30.8723 -30.8723 -30.8692 -30.8401
   -30.8401 -30.8345 -30.8345 -30.8291 -30.8291 -30.8162 -30.8083 -30.8083
    -9.0460  -7.9409  -7.6769  -7.6769   4.1255   4.1255   4.1821   6.0149
     6.0149   6.3479   6.3479   6.7384   6.7384   6.8704   7.6871   7.6871

          k = 0.0000 0.0000 0.3744 (  9814 PWs)   bands (ev):

   -64.1236 -64.1191 -64.1155 -64.1155 -30.8649 -30.8649 -30.8580 -30.8475
   -30.8475 -30.8353 -30.8353 -30.8293 -30.8243 -30.8243 -30.8130 -30.8130
    -8.7959  -8.1972  -7.6538  -7.6538   4.4846   4.4846   4.6355   5.4900
     5.4900   6.0371   6.1984   6.1984   6.9352   6.9352   7.4464   7.4464

          k = 0.0000 0.0000-0.4993 (  9890 PWs)   bands (ev):

   -64.1213 -64.1213 -64.1155 -64.1155 -30.8561 -30.8561 -30.8561 -30.8561
   -30.8440 -30.8440 -30.8356 -30.8356 -30.8187 -30.8187 -30.8187 -30.8187
    -8.4978  -8.4978  -7.6442  -7.6442   4.9545   4.9545   4.9545   4.9545
     5.2657   5.2657   6.1380   6.1380   7.1818   7.1818   7.1818   7.1818

          k = 0.0000 0.1248 0.1248 (  9811 PWs)   bands (ev):

   -64.1263 -64.1160 -64.1160 -64.1156 -30.8755 -30.8752 -30.8752 -30.8393
   -30.8340 -30.8340 -30.8324 -30.8324 -30.8315 -30.8122 -30.8062 -30.8043
    -9.1550  -7.7572  -7.7572  -7.6927   3.9740   3.9740   3.9770   6.1112
     6.4621   6.4621   6.5581   6.5581   6.6233   7.2640   7.7912   7.8738

          k = 0.0000 0.1248 0.2496 (  9819 PWs)   bands (ev):

   -64.1251 -64.1172 -64.1159 -64.1156 -30.8715 -30.8706 -30.8692 -30.8454
   -30.8389 -30.8325 -30.8308 -30.8305 -30.8285 -30.8218 -30.8095 -30.8062
    -8.9928  -7.9213  -7.7264  -7.6767   4.1489   4.1989   4.1990   5.6656
     6.0674   6.4374   6.5909   6.5945   6.5961   6.7139   7.6086   7.7478

          k = 0.0000 0.1248 0.3744 (  9811 PWs)   bands (ev):

   -64.1233 -64.1190 -64.1158 -64.1157 -30.8661 -30.8633 -30.8597 -30.8523
   -30.8461 -30.8342 -30.8322 -30.8307 -30.8259 -30.8229 -30.8143 -30.8106
    -8.7486  -8.1678  -7.6915  -7.6644   4.4249   4.5550   4.5914   5.2049
     5.5497   5.8435   6.3432   6.4586   6.8057   6.9472   7.3511   7.5098

          k = 0.0000 0.1248-0.4993 (  9828 PWs)   bands (ev):

   -64.1211 -64.1211 -64.1157 -64.1157 -30.8594 -30.8594 -30.8547 -30.8547
   -30.8475 -30.8475 -30.8315 -30.8315 -30.8201 -30.8201 -30.8166 -30.8166
    -8.4588  -8.4588  -7.6681  -7.6681   4.7830   4.7830   5.0203   5.0203
     5.1503   5.1503   6.3493   6.3493   7.0686   7.0686   7.2259   7.2259

          k = 0.0000 0.2496 0.2496 (  9769 PWs)   bands (ev):

   -64.1240 -64.1170 -64.1170 -64.1158 -30.8688 -30.8688 -30.8659 -30.8528
   -30.8354 -30.8354 -30.8322 -30.8271 -30.8271 -30.8263 -30.8129 -30.8055
    -8.8414  -7.8693  -7.8693  -7.6807   4.2500   4.2500   4.4153   5.1926
     6.0273   6.2207   6.2207   6.6729   6.6729   6.7769   7.3935   7.7402

          k = 0.0000 0.2496 0.3744 (  9818 PWs)   bands (ev):

   -64.1224 -64.1186 -64.1167 -64.1160 -30.8675 -30.8633 -30.8595 -30.8589
   -30.8439 -30.8424 -30.8302 -30.8253 -30.8242 -30.8201 -30.8180 -30.8080
    -8.6150  -8.0874  -7.8021  -7.6994   4.3447   4.4840   4.7620   4.7933
     5.4147   5.7244   6.4612   6.6744   6.8004   6.9852   7.0923   7.5790

          k = 0.0000 0.2496-0.4993 (  9844 PWs)   bands (ev):

   -64.1205 -64.1205 -64.1164 -64.1164 -30.8645 -30.8645 -30.8547 -30.8547
   -30.8506 -30.8506 -30.8241 -30.8241 -30.8241 -30.8241 -30.8132 -30.8132
    -8.3496  -8.3496  -7.7407  -7.7407   4.5135   4.5135   4.8785   4.8785
     5.2134   5.2134   6.7347   6.7347   6.7644   6.7644   7.3074   7.3074

          k = 0.0000 0.3744 0.3744 (  9827 PWs)   bands (ev):

   -64.1211 -64.1180 -64.1180 -64.1166 -30.8664 -30.8664 -30.8648 -30.8538
   -30.8523 -30.8368 -30.8368 -30.8236 -30.8196 -30.8178 -30.8178 -30.8083
    -8.4183  -7.9763  -7.9763  -7.7648   4.3804   4.3804   4.4958   4.9552
     5.0924   6.0002   6.0002   6.7349   7.0059   7.0390   7.0390   7.5306

          k = 0.0000 0.3744-0.4993 (  9802 PWs)   bands (ev):

   -64.1195 -64.1195 -64.1173 -64.1173 -30.8671 -30.8671 -30.8617 -30.8617
   -30.8445 -30.8445 -30.8302 -30.8302 -30.8174 -30.8174 -30.8117 -30.8117
    -8.1927  -8.1927  -7.8611  -7.8611   4.3634   4.3634   4.5882   4.5882
     5.5202   5.5202   6.3509   6.3509   7.0673   7.0673   7.3422   7.3422

          k = 0.0000-0.4993-0.4993 (  9748 PWs)   bands (ev):

   -64.1184 -64.1184 -64.1184 -64.1184 -30.8662 -30.8662 -30.8662 -30.8662
   -30.8373 -30.8373 -30.8373 -30.8373 -30.8131 -30.8131 -30.8131 -30.8131
    -8.0194  -8.0194  -8.0194  -8.0194   4.3934   4.3934   4.3934   4.3934
     5.9140   5.9140   5.9140   5.9140   7.2722   7.2722   7.2722   7.2722

          k = 0.1248 0.1248 0.1248 (  9819 PWs)   bands (ev):

   -64.1259 -64.1160 -64.1160 -64.1160 -30.8741 -30.8741 -30.8741 -30.8374
   -30.8374 -30.8374 -30.8305 -30.8305 -30.8305 -30.8171 -30.8053 -30.8053
    -9.0995  -7.7473  -7.7473  -7.7473   4.0288   4.0288   4.0288   6.1900
     6.1900   6.1900   6.6638   6.6638   6.6638   6.9510   7.8174   7.8174

          k = 0.1248 0.1248 0.2496 (  9822 PWs)   bands (ev):

   -64.1247 -64.1171 -64.1160 -64.1160 -30.8710 -30.8710 -30.8696 -30.8424
   -30.8424 -30.8323 -30.8293 -30.8293 -30.8275 -30.8271 -30.8082 -30.8066
    -8.9409  -7.9039  -7.7233  -7.7233   4.1830   4.1830   4.2008   5.7949
     5.7949   6.3218   6.4079   6.6395   6.6395   6.7816   7.6613   7.7052

          k = 0.1248 0.1248 0.3744 (  9809 PWs)   bands (ev):

   -64.1230 -64.1189 -64.1160 -64.1160 -30.8670 -30.8670 -30.8619 -30.8473
   -30.8473 -30.8392 -30.8290 -30.8290 -30.8251 -30.8231 -30.8126 -30.8110
    -8.7028  -8.1405  -7.6990  -7.6990   4.3969   4.3969   4.5240   5.4230
     5.4230   5.6323   6.5391   6.5391   6.7226   6.9654   7.4345   7.4398

          k = 0.1248 0.1248-0.4993 (  9844 PWs)   bands (ev):

   -64.1209 -64.1209 -64.1159 -64.1159 -30.8648 -30.8648 -30.8514 -30.8514
   -30.8498 -30.8498 -30.8290 -30.8290 -30.8178 -30.8178 -30.8176 -30.8176
    -8.4214  -8.4214  -7.6889  -7.6889   4.5311   4.5311   5.0098   5.0098
     5.2364   5.2364   6.4864   6.4864   7.0836   7.0836   7.1949   7.1949

          k = 0.1248 0.2496 0.2496 (  9801 PWs)   bands (ev):

   -64.1237 -64.1170 -64.1170 -64.1161 -30.8704 -30.8704 -30.8699 -30.8463
   -30.8377 -30.8354 -30.8354 -30.8258 -30.8258 -30.8255 -30.8106 -30.8063
    -8.7934  -7.8583  -7.8583  -7.7190   4.2035   4.2035   4.2554   5.4707
     5.7648   6.1121   6.1121   6.7813   6.7813   6.8092   7.5016   7.6985

          k = 0.1248 0.2496 0.3744 (  9792 PWs)   bands (ev):

   -64.1221 -64.1185 -64.1168 -64.1163 -30.8709 -30.8698 -30.8667 -30.8492
   -30.8469 -30.8396 -30.8277 -30.8241 -30.8235 -30.8203 -30.8151 -30.8087
    -8.5737  -8.0659  -7.8014  -7.7255   4.2116   4.2828   4.3588   5.1799
     5.3649   5.8005   6.5038   6.7601   6.8355   7.0037   7.2319   7.5398

          k = 0.1248 0.2496-0.4993 (  9822 PWs)   bands (ev):

   -64.1203 -64.1203 -64.1165 -64.1165 -30.8705 -30.8705 -30.8594 -30.8594
   -30.8440 -30.8440 -30.8231 -30.8231 -30.8209 -30.8209 -30.8139 -30.8139
    -8.3174  -8.3174  -7.7529  -7.7529   4.2437   4.2437   4.6898   4.6898
     5.5177   5.5177   6.7882   6.7882   6.8915   6.8915   7.2773   7.2773

          k = 0.1248 0.3744 0.3744 (  9808 PWs)   bands (ev):

   -64.1209 -64.1180 -64.1180 -64.1168 -30.8726 -30.8711 -30.8711 -30.8593
   -30.8432 -30.8324 -30.8324 -30.8199 -30.8191 -30.8177 -30.8177 -30.8087
    -8.3845  -7.9643  -7.9643  -7.7787   4.1413   4.1858   4.1858   4.7134
     5.5320   6.1870   6.1870   6.9276   7.0245   7.0549   7.0549   7.5093

          k = 0.1248 0.3744-0.4993 (  9794 PWs)   bands (ev):

   -64.1194 -64.1194 -64.1174 -64.1174 -30.8733 -30.8733 -30.8671 -30.8671
   -30.8379 -30.8379 -30.8258 -30.8258 -30.8171 -30.8171 -30.8120 -30.8120
    -8.1690  -8.1690  -7.8614  -7.8614   4.0974   4.0974   4.3596   4.3596
     5.8365   5.8365   6.5675   6.5675   7.0822   7.0822   7.3312   7.3312

          k = 0.1248-0.4993-0.4993 (  9796 PWs)   bands (ev):

   -64.1184 -64.1184 -64.1184 -64.1184 -30.8721 -30.8721 -30.8721 -30.8721
   -30.8317 -30.8317 -30.8317 -30.8317 -30.8131 -30.8131 -30.8131 -30.8131
    -8.0069  -8.0069  -8.0069  -8.0069   4.1400   4.1400   4.1400   4.1400
     6.1972   6.1972   6.1972   6.1972   7.2723   7.2723   7.2723   7.2723

          k = 0.2496 0.2496 0.2496 (  9825 PWs)   bands (ev):

   -64.1228 -64.1170 -64.1170 -64.1170 -30.8739 -30.8739 -30.8739 -30.8485
   -30.8352 -30.8352 -30.8352 -30.8232 -30.8232 -30.8232 -30.8085 -30.8085
    -8.6578  -7.8315  -7.8315  -7.8315   4.0806   4.0806   4.0806   5.2343
     5.9965   5.9965   5.9965   6.9029   6.9029   6.9029   7.5822   7.5822

          k = 0.2496 0.2496 0.3744 (  9809 PWs)   bands (ev):

   -64.1214 -64.1183 -64.1170 -64.1170 -30.8770 -30.8770 -30.8736 -30.8597
   -30.8348 -30.8348 -30.8243 -30.8211 -30.8211 -30.8198 -30.8119 -30.8100
    -8.4581  -8.0087  -7.8045  -7.8045   3.9479   3.9479   4.0828   4.7031
     5.9719   5.9719   6.5590   6.9379   6.9379   7.0479   7.4148   7.4351

          k = 0.2496 0.2496-0.4993 (  9786 PWs)   bands (ev):

   -64.1199 -64.1199 -64.1170 -64.1170 -30.8783 -30.8783 -30.8686 -30.8686
   -30.8346 -30.8346 -30.8203 -30.8203 -30.8158 -30.8158 -30.8155 -30.8155
    -8.2288  -8.2288  -7.7933  -7.7933   3.8912   3.8912   4.2974   4.2974
     5.9791   5.9791   6.9351   6.9351   7.0670   7.0670   7.2268   7.2268

          k = 0.2496 0.3744 0.3744 (  9834 PWs)   bands (ev):

   -64.1204 -64.1180 -64.1180 -64.1173 -30.8816 -30.8796 -30.8796 -30.8700
   -30.8307 -30.8250 -30.8250 -30.8179 -30.8173 -30.8173 -30.8142 -30.8099
    -8.2911  -7.9350  -7.9350  -7.8236   3.7424   3.8232   3.8232   4.2431
     6.1799   6.5250   6.5250   7.0782   7.0993   7.0993   7.2357   7.4492

          k = 0.2496 0.3744-0.4993 (  9810 PWs)   bands (ev):

   -64.1192 -64.1192 -64.1176 -64.1176 -30.8826 -30.8826 -30.8771 -30.8771
   -30.8274 -30.8274 -30.8185 -30.8185 -30.8163 -30.8163 -30.8127 -30.8127
    -8.1056  -8.1056  -7.8679  -7.8679   3.6940   3.6940   3.9283   3.9283
     6.3827   6.3827   6.9520   6.9520   7.1255   7.1255   7.2984   7.2984

          k = 0.2496-0.4993-0.4993 (  9780 PWs)   bands (ev):

   -64.1184 -64.1184 -64.1184 -64.1184 -30.8822 -30.8822 -30.8822 -30.8822
   -30.8224 -30.8224 -30.8224 -30.8224 -30.8131 -30.8131 -30.8131 -30.8131
    -7.9767  -7.9767  -7.9767  -7.9767   3.7078   3.7078   3.7078   3.7078
     6.7063   6.7063   6.7063   6.7063   7.2725   7.2725   7.2725   7.2725

          k = 0.3744 0.3744 0.3744 (  9811 PWs)   bands (ev):

   -64.1197 -64.1180 -64.1180 -64.1180 -30.8862 -30.8862 -30.8862 -30.8797
   -30.8203 -30.8203 -30.8203 -30.8160 -30.8160 -30.8160 -30.8117 -30.8117
    -8.1606  -7.9054  -7.9054  -7.9054   3.5355   3.5355   3.5355   3.8181
     6.7715   6.7715   6.7715   7.1601   7.1601   7.1601   7.3609   7.3609

          k = 0.3744 0.3744-0.4993 (  9822 PWs)   bands (ev):

   -64.1188 -64.1188 -64.1180 -64.1180 -30.8886 -30.8886 -30.8855 -30.8855
   -30.8193 -30.8193 -30.8148 -30.8148 -30.8138 -30.8138 -30.8137 -30.8137
    -8.0229  -8.0229  -7.8931  -7.8931   3.4293   3.4293   3.5634   3.5634
     6.8515   6.8515   7.1944   7.1944   7.1966   7.1966   7.2592   7.2592

          k = 0.3744-0.4993-0.4993 (  9812 PWs)   bands (ev):

   -64.1184 -64.1184 -64.1184 -64.1184 -30.8897 -30.8897 -30.8897 -30.8897
   -30.8155 -30.8155 -30.8155 -30.8155 -30.8130 -30.8130 -30.8130 -30.8130
    -7.9460  -7.9460  -7.9460  -7.9460   3.3823   3.3823   3.3823   3.3823
     7.1169   7.1169   7.1169   7.1169   7.2727   7.2727   7.2727   7.2727

          k =-0.4993-0.4993-0.4993 (  9808 PWs)   bands (ev):

   -64.1184 -64.1184 -64.1184 -64.1184 -30.8925 -30.8925 -30.8925 -30.8925
   -30.8130 -30.8130 -30.8130 -30.8130 -30.8130 -30.8130 -30.8130 -30.8130
    -7.9332  -7.9332  -7.9332  -7.9332   3.2644   3.2644   3.2644   3.2644
     7.2728   7.2728   7.2728   7.2728   7.2728   7.2728   7.2728   7.2728

     highest occupied level (ev):     7.9194

!    total energy              =    -606.91737121 Ry
     Harris-Foulkes estimate   =    -606.91737121 Ry
     estimated scf accuracy    <          2.4E-11 Ry

     The total energy is the sum of the following terms:

     one-electron contribution =    -297.47400434 Ry
     hartree contribution      =     165.51959605 Ry
     xc contribution           =     -96.27715769 Ry
     ewald contribution        =    -378.68580522 Ry

     convergence has been achieved in  11 iterations

     Forces acting on atoms (cartesian axes, Ry/au):

     atom    1 type  1   force =     0.00000000    0.00000000    0.00000000
     atom    2 type  1   force =     0.00000000    0.00000000   -0.00000000
     atom    3 type  1   force =     0.00000000    0.00000000    0.00000000
     atom    4 type  1   force =     0.00000000    0.00000000    0.00000000
     atom    5 type  2   force =     0.00000000    0.00000000    0.00000000
     atom    6 type  2   force =     0.00000000    0.00000000    0.00000000
     atom    7 type  2   force =     0.00000000    0.00000000    0.00000000
     atom    8 type  2   force =     0.00000000    0.00000000    0.00000000

     Total force =     0.000000     Total SCF correction =     0.000000


     Computing stress (Cartesian axis) and pressure

          total   stress  (Ry/bohr**3)                   (kbar)     P=    1.68
   0.00001144   0.00000000   0.00000000          1.68      0.00      0.00
   0.00000000   0.00001144   0.00000000          0.00      1.68      0.00
   0.00000000   0.00000000   0.00001144          0.00      0.00      1.68


     number of scf cycles    =   3
     number of bfgs steps    =   2

     enthalpy old            =    -608.4082033998 Ry
     enthalpy new            =    -606.9173712064 Ry

     CASE: enthalpy_new > enthalpy_old

     new trust radius        =       0.0000016749 bohr

     trust_radius < trust_radius_min

     resetting bfgs history

     Message from routine bfgs:
     history already reset at previous step: stopping
     new conv_thr            =            1.0E-10 Ry

     new unit-cell volume =    516.05396 a.u.^3 (    76.47131 Ang^3 )
     density =      3.50038 g/cm^3

CELL_PARAMETERS (angstrom)
   4.244561560   0.000000000   0.000000000
   0.000000000   4.244561560   0.000000000
   0.000000000   0.000000000   4.244561560

ATOMIC_POSITIONS (crystal)
Mg       0.000000000   0.000000000   0.000000000
Mg       0.500000000   0.500000000   0.000000000
Mg       0.500000000   0.000000000   0.500000000
Mg       0.000000000   0.500000000   0.500000000
O        0.500000000   0.000000000  -0.000000000
O        0.000000000   0.500000000   0.000000000
O        0.000000000   0.000000000   0.500000000
O        0.500000000   0.500000000   0.500000000



     Writing output data file MgO.save/
     NEW-OLD atomic charge density approx. for the potential
     extrapolated charge   65.26984, renormalised to   64.00000

     total cpu time spent up to now is       51.0 secs

     Self-consistent Calculation

     iteration #  1     ecut=   110.00 Ry     beta= 0.70
     Davidson diagonalization with overlap
     ethr =  1.00E-06,  avg # of iterations =  4.0

     total cpu time spent up to now is       54.6 secs

     total energy              =    -606.85665880 Ry
     Harris-Foulkes estimate   =    -602.64971921 Ry
     estimated scf accuracy    <       0.03260529 Ry

     iteration #  2     ecut=   110.00 Ry     beta= 0.70
     Davidson diagonalization with overlap
     ethr =  5.09E-05,  avg # of iterations =  3.0

     total cpu time spent up to now is       57.7 secs

     total energy              =    -606.91350547 Ry
     Harris-Foulkes estimate   =    -606.94772354 Ry
     estimated scf accuracy    <       0.09507279 Ry

     iteration #  3     ecut=   110.00 Ry     beta= 0.70
     Davidson diagonalization with overlap
     ethr =  5.09E-05,  avg # of iterations =  2.0

     total cpu time spent up to now is       59.7 secs

     total energy              =    -606.91857766 Ry
     Harris-Foulkes estimate   =    -606.92154875 Ry
     estimated scf accuracy    <       0.01254870 Ry

     iteration #  4     ecut=   110.00 Ry     beta= 0.70
     Davidson diagonalization with overlap
     ethr =  1.96E-05,  avg # of iterations =  1.0

     total cpu time spent up to now is       61.3 secs

     total energy              =    -606.91549658 Ry
     Harris-Foulkes estimate   =    -606.91881454 Ry
     estimated scf accuracy    <       0.00662469 Ry

     iteration #  5     ecut=   110.00 Ry     beta= 0.70
     Davidson diagonalization with overlap
     ethr =  1.04E-05,  avg # of iterations =  2.0

     total cpu time spent up to now is       63.3 secs

     total energy              =    -606.91640943 Ry
     Harris-Foulkes estimate   =    -606.91645327 Ry
     estimated scf accuracy    <       0.00010415 Ry

     iteration #  6     ecut=   110.00 Ry     beta= 0.70
     Davidson diagonalization with overlap
     ethr =  1.63E-07,  avg # of iterations =  2.0

     total cpu time spent up to now is       65.3 secs

     total energy              =    -606.91645007 Ry
     Harris-Foulkes estimate   =    -606.91642519 Ry
     estimated scf accuracy    <       0.00002569 Ry

     iteration #  7     ecut=   110.00 Ry     beta= 0.70
     Davidson diagonalization with overlap
     ethr =  4.01E-08,  avg # of iterations =  2.0

     total cpu time spent up to now is       67.4 secs

     total energy              =    -606.91639467 Ry
     Harris-Foulkes estimate   =    -606.91645545 Ry
     estimated scf accuracy    <       0.00011045 Ry

     iteration #  8     ecut=   110.00 Ry     beta= 0.70
     Davidson diagonalization with overlap
     ethr =  4.01E-08,  avg # of iterations =  3.0

     total cpu time spent up to now is       70.0 secs

     total energy              =    -606.91641638 Ry
     Harris-Foulkes estimate   =    -606.91641652 Ry
     estimated scf accuracy    <       0.00000042 Ry

     iteration #  9     ecut=   110.00 Ry     beta= 0.70
     Davidson diagonalization with overlap
     ethr =  6.58E-10,  avg # of iterations =  1.7

     total cpu time spent up to now is       71.7 secs

     total energy              =    -606.91641630 Ry
     Harris-Foulkes estimate   =    -606.91641640 Ry
     estimated scf accuracy    <       0.00000018 Ry

     iteration # 10     ecut=   110.00 Ry     beta= 0.70
     Davidson diagonalization with overlap
     ethr =  2.88E-10,  avg # of iterations =  2.0

     total cpu time spent up to now is       74.0 secs

     total energy              =    -606.91641632 Ry
     Harris-Foulkes estimate   =    -606.91641633 Ry
     estimated scf accuracy    <          7.2E-09 Ry

     iteration # 11     ecut=   110.00 Ry     beta= 0.70
     Davidson diagonalization with overlap
     ethr =  1.13E-11,  avg # of iterations =  2.0

     total cpu time spent up to now is       76.4 secs

     total energy              =    -606.91641632 Ry
     Harris-Foulkes estimate   =    -606.91641632 Ry
     estimated scf accuracy    <          6.4E-10 Ry

     iteration # 12     ecut=   110.00 Ry     beta= 0.70
     Davidson diagonalization with overlap
     ethr =  9.93E-13,  avg # of iterations =  2.0

     total cpu time spent up to now is       78.3 secs

     End of self-consistent calculation

          k = 0.0000 0.0000 0.0000 (  9795 PWs)   bands (ev):

   -64.4399 -64.4294 -64.4294 -64.4294 -31.1846 -31.1846 -31.1846 -31.1427
   -31.1427 -31.1427 -31.1427 -31.1427 -31.1427 -31.1154 -31.1154 -31.1154
    -9.4135  -7.9107  -7.9107  -7.9107   3.6628   3.6628   3.6628   6.3533
     6.3533   6.3533   6.3533   6.3533   6.3533   7.6759   7.6759   7.6759

          k = 0.0000 0.0000 0.1240 (  9811 PWs)   bands (ev):

   -64.4395 -64.4298 -64.4294 -64.4294 -31.1830 -31.1830 -31.1823 -31.1442
   -31.1442 -31.1429 -31.1429 -31.1416 -31.1416 -31.1183 -31.1164 -31.1164
    -9.3577  -7.9686  -7.9019  -7.9019   3.7374   3.7374   3.7478   6.2039
     6.2039   6.2885   6.2885   6.3958   6.3958   7.3575   7.6156   7.6156

          k = 0.0000 0.0000 0.2480 (  9807 PWs)   bands (ev):

   -64.4384 -64.4310 -64.4294 -64.4294 -31.1784 -31.1784 -31.1756 -31.1488
   -31.1488 -31.1436 -31.1436 -31.1386 -31.1386 -31.1266 -31.1193 -31.1193
    -9.1979  -8.1336  -7.8804  -7.8804   3.9577   3.9577   4.0071   5.8122
     5.8122   6.1363   6.1363   6.5195   6.5195   6.6341   7.4492   7.4492

          k = 0.0000 0.0000 0.3719 (  9814 PWs)   bands (ev):

   -64.4367 -64.4327 -64.4294 -64.4294 -31.1716 -31.1716 -31.1651 -31.1555
   -31.1555 -31.1443 -31.1443 -31.1387 -31.1342 -31.1342 -31.1237 -31.1237
    -8.9567  -8.3801  -7.8588  -7.8588   4.3111   4.3111   4.4470   5.2983
     5.2983   5.8150   5.9899   5.9899   6.7128   6.7128   7.2138   7.2138

          k = 0.0000 0.0000-0.4959 (  9890 PWs)   bands (ev):

   -64.4347 -64.4347 -64.4294 -64.4294 -31.1636 -31.1636 -31.1636 -31.1636
   -31.1522 -31.1522 -31.1446 -31.1446 -31.1290 -31.1290 -31.1290 -31.1290
    -8.6696  -8.6696  -7.8498  -7.8498   4.7730   4.7730   4.7730   4.7730
     5.0606   5.0606   5.9308   5.9308   6.9546   6.9546   6.9546   6.9546

          k = 0.0000 0.1240 0.1240 (  9811 PWs)   bands (ev):

   -64.4391 -64.4298 -64.4298 -64.4294 -31.1814 -31.1811 -31.1811 -31.1480
   -31.1432 -31.1432 -31.1417 -31.1417 -31.1409 -31.1229 -31.1175 -31.1157
    -9.3030  -7.9571  -7.9571  -7.8953   3.8069   3.8069   3.8115   5.9047
     6.2491   6.2491   6.3426   6.3426   6.4072   7.0235   7.5509   7.6325

          k = 0.0000 0.1240 0.2480 (  9819 PWs)   bands (ev):

   -64.4380 -64.4309 -64.4298 -64.4295 -31.1777 -31.1769 -31.1755 -31.1536
   -31.1476 -31.1417 -31.1401 -31.1399 -31.1381 -31.1318 -31.1205 -31.1174
    -9.1466  -8.1150  -7.9280  -7.8804   3.9792   4.0239   4.0300   5.4683
     5.8638   6.2248   6.3621   6.3763   6.3808   6.4960   7.3726   7.5099

          k = 0.0000 0.1240 0.3719 (  9811 PWs)   bands (ev):

   -64.4364 -64.4325 -64.4297 -64.4295 -31.1727 -31.1702 -31.1667 -31.1600
   -31.1543 -31.1432 -31.1415 -31.1401 -31.1356 -31.1329 -31.1250 -31.1215
    -8.9113  -8.3521  -7.8951  -7.8691   4.2508   4.3804   4.4038   5.0168
     5.3570   5.6246   6.1332   6.2471   6.5865   6.7254   7.1210   7.2773

          k = 0.0000 0.1240-0.4959 (  9828 PWs)   bands (ev):

   -64.4345 -64.4345 -64.4296 -64.4296 -31.1665 -31.1665 -31.1622 -31.1622
   -31.1554 -31.1554 -31.1408 -31.1408 -31.1303 -31.1303 -31.1270 -31.1270
    -8.6322  -8.6322  -7.8729  -7.8729   4.6029   4.6029   4.8377   4.8377
     4.9474   4.9474   6.1398   6.1398   6.8444   6.8444   6.9991   6.9991

          k = 0.0000 0.2480 0.2480 (  9769 PWs)   bands (ev):

   -64.4371 -64.4307 -64.4307 -64.4296 -31.1752 -31.1752 -31.1726 -31.1604
   -31.1444 -31.1444 -31.1414 -31.1367 -31.1367 -31.1361 -31.1236 -31.1168
    -9.0008  -8.0655  -8.0655  -7.8848   4.0745   4.0745   4.2430   5.0037
     5.8042   6.0143   6.0143   6.4571   6.4571   6.5601   7.1628   7.5044

          k = 0.0000 0.2480 0.3719 (  9818 PWs)   bands (ev):

   -64.4356 -64.4322 -64.4305 -64.4299 -31.1739 -31.1700 -31.1665 -31.1661
   -31.1521 -31.1509 -31.1396 -31.1351 -31.1342 -31.1303 -31.1284 -31.1191
    -8.7830  -8.2754  -8.0017  -7.9032   4.1685   4.2991   4.5841   4.6112
     5.2041   5.5287   6.2504   6.4601   6.5843   6.7648   6.8686   7.3475

          k = 0.0000 0.2480-0.4959 (  9844 PWs)   bands (ev):

   -64.4339 -64.4339 -64.4302 -64.4302 -31.1711 -31.1711 -31.1621 -31.1621
   -31.1585 -31.1585 -31.1340 -31.1340 -31.1340 -31.1340 -31.1240 -31.1240
    -8.5276  -8.5276  -7.9430  -7.9430   4.3355   4.3355   4.6813   4.6813
     5.0276   5.0276   6.5201   6.5201   6.5476   6.5476   7.0814   7.0814

          k = 0.0000 0.3719 0.3719 (  9827 PWs)   bands (ev):

   -64.4344 -64.4316 -64.4316 -64.4304 -31.1728 -31.1728 -31.1714 -31.1612
   -31.1600 -31.1457 -31.1457 -31.1335 -31.1298 -31.1282 -31.1282 -31.1194
    -8.5940  -8.1693  -8.1693  -7.9665   4.1991   4.1991   4.3173   4.7551
     4.9089   5.7995   5.7995   6.5193   6.7873   6.8194   6.8194   7.3018

          k = 0.0000 0.3719-0.4959 (  9802 PWs)   bands (ev):

   -64.4330 -64.4330 -64.4310 -64.4310 -31.1735 -31.1735 -31.1685 -31.1685
   -31.1528 -31.1528 -31.1396 -31.1396 -31.1279 -31.1279 -31.1226 -31.1226
    -8.3773  -8.3773  -8.0590  -8.0590   4.1849   4.1849   4.3986   4.3986
     5.3290   5.3290   6.1434   6.1434   6.8479   6.8479   7.1175   7.1175

          k = 0.0000-0.4959-0.4959 (  9748 PWs)   bands (ev):

   -64.4320 -64.4320 -64.4320 -64.4320 -31.1727 -31.1727 -31.1727 -31.1727
   -31.1462 -31.1462 -31.1462 -31.1462 -31.1239 -31.1239 -31.1239 -31.1239
    -8.2110  -8.2110  -8.2110  -8.2110   4.2107   4.2107   4.2107   4.2107
     5.7155   5.7155   5.7155   5.7155   7.0496   7.0496   7.0496   7.0496

          k = 0.1240 0.1240 0.1240 (  9819 PWs)   bands (ev):

   -64.4388 -64.4298 -64.4298 -64.4298 -31.1801 -31.1801 -31.1801 -31.1462
   -31.1462 -31.1462 -31.1399 -31.1399 -31.1399 -31.1274 -31.1166 -31.1166
    -9.2494  -7.9478  -7.9478  -7.9478   3.8608   3.8608   3.8608   5.9824
     5.9824   5.9824   6.4470   6.4470   6.4470   6.7143   7.5774   7.5774

          k = 0.1240 0.1240 0.2480 (  9822 PWs)   bands (ev):

   -64.4377 -64.4308 -64.4298 -64.4298 -31.1772 -31.1772 -31.1759 -31.1508
   -31.1508 -31.1415 -31.1388 -31.1388 -31.1371 -31.1367 -31.1193 -31.1178
    -9.0967  -8.0985  -7.9253  -7.9253   4.0128   4.0128   4.0258   5.5960
     5.5960   6.0941   6.1971   6.4241   6.4241   6.5629   7.4250   7.4687

          k = 0.1240 0.1240 0.3719 (  9809 PWs)   bands (ev):

   -64.4361 -64.4324 -64.4298 -64.4298 -31.1735 -31.1735 -31.1687 -31.1554
   -31.1554 -31.1478 -31.1385 -31.1385 -31.1350 -31.1330 -31.1234 -31.1218
    -8.8674  -8.3261  -7.9025  -7.9025   4.2232   4.2232   4.3379   5.2322
     5.2322   5.4177   6.3265   6.3265   6.5065   6.7434   7.2043   7.2083

          k = 0.1240 0.1240-0.4959 (  9844 PWs)   bands (ev):

   -64.4343 -64.4343 -64.4298 -64.4298 -31.1714 -31.1714 -31.1590 -31.1590
   -31.1577 -31.1577 -31.1385 -31.1385 -31.1282 -31.1282 -31.1279 -31.1279
    -8.5964  -8.5964  -7.8931  -7.8931   4.3550   4.3550   4.8098   4.8098
     5.0496   5.0496   6.2751   6.2751   6.8608   6.8608   6.9684   6.9684

          k = 0.1240 0.2480 0.2480 (  9801 PWs)   bands (ev):

   -64.4368 -64.4307 -64.4307 -64.4299 -31.1766 -31.1766 -31.1762 -31.1544
   -31.1463 -31.1444 -31.1444 -31.1356 -31.1356 -31.1353 -31.1215 -31.1175
    -8.9547  -8.0552  -8.0552  -7.9217   4.0291   4.0291   4.0840   5.2782
     5.5473   5.9084   5.9084   6.5638   6.5638   6.5920   7.2693   7.4637

          k = 0.1240 0.2480 0.3719 (  9792 PWs)   bands (ev):

   -64.4354 -64.4321 -64.4305 -64.4301 -31.1770 -31.1761 -31.1732 -31.1570
   -31.1550 -31.1483 -31.1373 -31.1340 -31.1334 -31.1305 -31.1257 -31.1198
    -8.7434  -8.2550  -8.0012  -7.9285   4.0383   4.1106   4.1769   4.9748
     5.1752   5.6035   6.2931   6.5445   6.6189   6.7827   7.0058   7.3093

          k = 0.1240 0.2480-0.4959 (  9822 PWs)   bands (ev):

   -64.4337 -64.4337 -64.4303 -64.4303 -31.1767 -31.1767 -31.1664 -31.1664
   -31.1523 -31.1523 -31.1331 -31.1331 -31.1310 -31.1310 -31.1245 -31.1245
    -8.4968  -8.4968  -7.9550  -7.9550   4.0712   4.0712   4.4972   4.4972
     5.3259   5.3259   6.5728   6.5728   6.6729   6.6729   7.0518   7.0518

          k = 0.1240 0.3719 0.3719 (  9808 PWs)   bands (ev):

   -64.4343 -64.4316 -64.4316 -64.4306 -31.1786 -31.1772 -31.1772 -31.1663
   -31.1516 -31.1416 -31.1416 -31.1301 -31.1294 -31.1281 -31.1281 -31.1198
    -8.5617  -8.1580  -8.1580  -7.9800   3.9704   4.0093   4.0093   4.5195
     5.3396   5.9828   5.9828   6.7082   6.8057   6.8350   6.8350   7.2810

          k = 0.1240 0.3719-0.4959 (  9794 PWs)   bands (ev):

   -64.4329 -64.4329 -64.4311 -64.4311 -31.1792 -31.1792 -31.1735 -31.1735
   -31.1468 -31.1468 -31.1355 -31.1355 -31.1276 -31.1276 -31.1228 -31.1228
    -8.3547  -8.3547  -8.0596  -8.0596   3.9251   3.9251   4.1758   4.1758
     5.6388   5.6388   6.3557   6.3557   6.8627   6.8627   7.1068   7.1068

          k = 0.1240-0.4959-0.4959 (  9796 PWs)   bands (ev):

   -64.4320 -64.4320 -64.4320 -64.4320 -31.1781 -31.1781 -31.1781 -31.1781
   -31.1410 -31.1410 -31.1410 -31.1410 -31.1239 -31.1239 -31.1239 -31.1239
    -8.1994  -8.1994  -8.1994  -8.1994   3.9637   3.9637   3.9637   3.9637
     5.9928   5.9928   5.9928   5.9928   7.0497   7.0497   7.0497   7.0497

          k = 0.2480 0.2480 0.2480 (  9825 PWs)   bands (ev):

   -64.4360 -64.4307 -64.4307 -64.4307 -31.1798 -31.1798 -31.1798 -31.1563
   -31.1442 -31.1442 -31.1442 -31.1332 -31.1332 -31.1332 -31.1196 -31.1196
    -8.8245  -8.0302  -8.0302  -8.0302   3.9093   3.9093   3.9093   5.0281
     5.7958   5.7958   5.7958   6.6842   6.6842   6.6842   7.3501   7.3501

          k = 0.2480 0.2480 0.3719 (  9809 PWs)   bands (ev):

   -64.4348 -64.4319 -64.4307 -64.4307 -31.1827 -31.1827 -31.1795 -31.1667
   -31.1439 -31.1439 -31.1342 -31.1313 -31.1313 -31.1301 -31.1227 -31.1210
    -8.6325  -8.2007  -8.0049  -8.0049   3.7800   3.7800   3.9077   4.5091
     5.7720   5.7720   6.3485   6.7197   6.7197   6.8266   7.1864   7.2074

          k = 0.2480 0.2480-0.4959 (  9786 PWs)   bands (ev):

   -64.4333 -64.4333 -64.4307 -64.4307 -31.1838 -31.1838 -31.1749 -31.1749
   -31.1437 -31.1437 -31.1306 -31.1306 -31.1264 -31.1264 -31.1260 -31.1260
    -8.4122  -8.4122  -7.9943  -7.9943   3.7249   3.7249   4.1144   4.1144
     5.7791   5.7791   6.7176   6.7176   6.8471   6.8471   7.0021   7.0021

          k = 0.2480 0.3719 0.3719 (  9834 PWs)   bands (ev):

   -64.4338 -64.4316 -64.4316 -64.4310 -31.1868 -31.1850 -31.1850 -31.1761
   -31.1401 -31.1348 -31.1348 -31.1283 -31.1277 -31.1277 -31.1249 -31.1209
    -8.4724  -8.1306  -8.1306  -8.0238   3.5785   3.6551   3.6551   4.0606
     5.9763   6.3153   6.3153   6.8586   6.8787   6.8787   7.0116   7.2224

          k = 0.2480 0.3719-0.4959 (  9810 PWs)   bands (ev):

   -64.4327 -64.4327 -64.4313 -64.4313 -31.1877 -31.1877 -31.1827 -31.1827
   -31.1371 -31.1371 -31.1289 -31.1289 -31.1268 -31.1268 -31.1235 -31.1235
    -8.2944  -8.2944  -8.0665  -8.0665   3.5301   3.5301   3.7550   3.7550
     6.1755   6.1755   6.7340   6.7340   6.9054   6.9054   7.0747   7.0747

          k = 0.2480-0.4959-0.4959 (  9780 PWs)   bands (ev):

   -64.4320 -64.4320 -64.4320 -64.4320 -31.1873 -31.1873 -31.1873 -31.1873
   -31.1324 -31.1324 -31.1324 -31.1324 -31.1238 -31.1238 -31.1238 -31.1238
    -8.1710  -8.1710  -8.1710  -8.1710   3.5415   3.5415   3.5415   3.5415
     6.4929   6.4929   6.4929   6.4929   7.0502   7.0502   7.0502   7.0502

          k = 0.3719 0.3719 0.3719 (  9811 PWs)   bands (ev):

   -64.4332 -64.4316 -64.4316 -64.4316 -31.1911 -31.1911 -31.1911 -31.1850
   -31.1305 -31.1305 -31.1305 -31.1266 -31.1266 -31.1266 -31.1226 -31.1226
    -8.3476  -8.1029  -8.1029  -8.1029   3.3741   3.3741   3.3741   3.6464
     6.5580   6.5580   6.5580   6.9392   6.9392   6.9392   7.1360   7.1360

          k = 0.3719 0.3719-0.4959 (  9822 PWs)   bands (ev):

   -64.4324 -64.4324 -64.4316 -64.4316 -31.1933 -31.1933 -31.1904 -31.1904
   -31.1296 -31.1296 -31.1255 -31.1255 -31.1246 -31.1246 -31.1244 -31.1244
    -8.2158  -8.2158  -8.0913  -8.0913   3.2705   3.2705   3.3993   3.3993
     6.6365   6.6365   6.9734   6.9734   6.9755   6.9755   7.0364   7.0364

          k = 0.3719-0.4959-0.4959 (  9812 PWs)   bands (ev):

   -64.4320 -64.4320 -64.4320 -64.4320 -31.1943 -31.1943 -31.1943 -31.1943
   -31.1261 -31.1261 -31.1261 -31.1261 -31.1238 -31.1238 -31.1238 -31.1238
    -8.1423  -8.1423  -8.1423  -8.1423   3.2234   3.2234   3.2234   3.2234
     6.8972   6.8972   6.8972   6.8972   7.0506   7.0506   7.0506   7.0506

          k =-0.4959-0.4959-0.4959 (  9808 PWs)   bands (ev):

   -64.4320 -64.4320 -64.4320 -64.4320 -31.1968 -31.1968 -31.1968 -31.1968
   -31.1238 -31.1238 -31.1238 -31.1238 -31.1238 -31.1238 -31.1238 -31.1238
    -8.1304  -8.1304  -8.1304  -8.1304   3.1083   3.1083   3.1083   3.1083
     7.0508   7.0508   7.0508   7.0508   7.0508   7.0508   7.0508   7.0508

     highest occupied level (ev):     7.6759

!    total energy              =    -606.91641632 Ry
     Harris-Foulkes estimate   =    -606.91641632 Ry
     estimated scf accuracy    <          5.2E-11 Ry

     The total energy is the sum of the following terms:

     one-electron contribution =    -301.37183822 Ry
     hartree contribution      =     166.81131026 Ry
     xc contribution           =     -96.19149544 Ry
     ewald contribution        =    -376.16439293 Ry

     convergence has been achieved in  12 iterations

     Forces acting on atoms (cartesian axes, Ry/au):

     atom    1 type  1   force =     0.00000000    0.00000000    0.00000000
     atom    2 type  1   force =     0.00000000    0.00000000    0.00000000
     atom    3 type  1   force =     0.00000000   -0.00000000    0.00000000
     atom    4 type  1   force =     0.00000000    0.00000000    0.00000000
     atom    5 type  2   force =     0.00000000    0.00000000   -0.00000000
     atom    6 type  2   force =     0.00000000    0.00000000   -0.00000000
     atom    7 type  2   force =     0.00000000   -0.00000000   -0.00000000
     atom    8 type  2   force =     0.00000000    0.00000000    0.00000000

     Total force =     0.000000     Total SCF correction =     0.000000


     Computing stress (Cartesian axis) and pressure

          total   stress  (Ry/bohr**3)                   (kbar)     P=  -28.59
  -0.00019438   0.00000000   0.00000000        -28.59      0.00      0.00
   0.00000000  -0.00019438   0.00000000          0.00    -28.59      0.00
   0.00000000   0.00000000  -0.00019438          0.00      0.00    -28.59


     BFGS Geometry Optimization

     number of scf cycles    =   1
     number of bfgs steps    =   0

     enthalpy new            =    -606.9164163230 Ry

     new trust radius        =       0.0220780982 bohr
     new conv_thr            =            1.0E-10 Ry

     new unit-cell volume =    508.56730 a.u.^3 (    75.36190 Ang^3 )
     density =      3.55191 g/cm^3

CELL_PARAMETERS (angstrom)
   4.223935469   0.000000000   0.000000000
   0.000000000   4.223935469   0.000000000
   0.000000000   0.000000000   4.223935469

ATOMIC_POSITIONS (crystal)
Mg       0.000000000   0.000000000   0.000000000
Mg       0.500000000   0.500000000   0.000000000
Mg       0.500000000  -0.000000000   0.500000000
Mg       0.000000000   0.500000000   0.500000000
O        0.500000000   0.000000000  -0.000000000
O        0.000000000   0.500000000  -0.000000000
O        0.000000000  -0.000000000   0.500000000
O        0.500000000   0.500000000   0.500000000



     Writing output data file MgO.save/
     NEW-OLD atomic charge density approx. for the potential
     extrapolated charge   63.05790, renormalised to   64.00000

     total cpu time spent up to now is       79.8 secs

     Self-consistent Calculation

     iteration #  1     ecut=   110.00 Ry     beta= 0.70
     Davidson diagonalization with overlap
     ethr =  1.00E-06,  avg # of iterations =  3.9

     total cpu time spent up to now is       83.2 secs

     total energy              =    -606.88513341 Ry
     Harris-Foulkes estimate   =    -610.02232964 Ry
     estimated scf accuracy    <       0.01827241 Ry

     iteration #  2     ecut=   110.00 Ry     beta= 0.70
     Davidson diagonalization with overlap
     ethr =  2.86E-05,  avg # of iterations =  3.0

     total cpu time spent up to now is       86.3 secs

     total energy              =    -606.91550197 Ry
     Harris-Foulkes estimate   =    -606.93404402 Ry
     estimated scf accuracy    <       0.05102202 Ry

     iteration #  3     ecut=   110.00 Ry     beta= 0.70
     Davidson diagonalization with overlap
     ethr =  2.86E-05,  avg # of iterations =  2.0

     total cpu time spent up to now is       88.3 secs

     total energy              =    -606.91836191 Ry
     Harris-Foulkes estimate   =    -606.91993712 Ry
     estimated scf accuracy    <       0.00640375 Ry

     iteration #  4     ecut=   110.00 Ry     beta= 0.70
     Davidson diagonalization with overlap
     ethr =  1.00E-05,  avg # of iterations =  1.0

     total cpu time spent up to now is       89.9 secs

     total energy              =    -606.91670214 Ry
     Harris-Foulkes estimate   =    -606.91849448 Ry
     estimated scf accuracy    <       0.00327306 Ry

     iteration #  5     ecut=   110.00 Ry     beta= 0.70
     Davidson diagonalization with overlap
     ethr =  5.11E-06,  avg # of iterations =  2.0

     total cpu time spent up to now is       92.0 secs

     total energy              =    -606.91731797 Ry
     Harris-Foulkes estimate   =    -606.91732165 Ry
     estimated scf accuracy    <       0.00000707 Ry

     iteration #  6     ecut=   110.00 Ry     beta= 0.70
     Davidson diagonalization with overlap
     ethr =  1.10E-08,  avg # of iterations =  2.9

     total cpu time spent up to now is       94.6 secs

     total energy              =    -606.91733024 Ry
     Harris-Foulkes estimate   =    -606.91732335 Ry
     estimated scf accuracy    <       0.00000035 Ry

     iteration #  7     ecut=   110.00 Ry     beta= 0.70
     Davidson diagonalization with overlap
     ethr =  5.51E-10,  avg # of iterations =  4.0

     total cpu time spent up to now is       98.1 secs

     total energy              =    -606.91731410 Ry
     Harris-Foulkes estimate   =    -606.91734038 Ry
     estimated scf accuracy    <       0.00005036 Ry

     iteration #  8     ecut=   110.00 Ry     beta= 0.70
     Davidson diagonalization with overlap
     ethr =  5.51E-10,  avg # of iterations =  4.0

     total cpu time spent up to now is      101.6 secs

     total energy              =    -606.91732324 Ry
     Harris-Foulkes estimate   =    -606.91732324 Ry
     estimated scf accuracy    <          3.6E-09 Ry

     iteration #  9     ecut=   110.00 Ry     beta= 0.70
     Davidson diagonalization with overlap
     ethr =  5.60E-12,  avg # of iterations =  1.6

     total cpu time spent up to now is      103.3 secs

     total energy              =    -606.91732324 Ry
     Harris-Foulkes estimate   =    -606.91732324 Ry
     estimated scf accuracy    <          3.8E-09 Ry

     iteration # 10     ecut=   110.00 Ry     beta= 0.70
     Davidson diagonalization with overlap
     ethr =  5.60E-12,  avg # of iterations =  2.0

     total cpu time spent up to now is      105.3 secs

     total energy              =    -606.91732324 Ry
     Harris-Foulkes estimate   =    -606.91732324 Ry
     estimated scf accuracy    <          2.2E-09 Ry

     iteration # 11     ecut=   110.00 Ry     beta= 0.70
     Davidson diagonalization with overlap
     ethr =  3.47E-12,  avg # of iterations =  2.0

     total cpu time spent up to now is      107.6 secs

     End of self-consistent calculation

          k = 0.0000 0.0000 0.0000 (  9795 PWs)   bands (ev):

   -64.2122 -64.2009 -64.2009 -64.2009 -30.9621 -30.9621 -30.9621 -30.9176
   -30.9176 -30.9176 -30.9176 -30.9176 -30.9176 -30.8887 -30.8887 -30.8887
    -9.3089  -7.7642  -7.7642  -7.7642   3.7815   3.7815   3.7815   6.5104
     6.5104   6.5104   6.5104   6.5104   6.5104   7.8529   7.8529   7.8529

          k = 0.0000 0.0000 0.1246 (  9811 PWs)   bands (ev):

   -64.2118 -64.2014 -64.2009 -64.2009 -30.9604 -30.9604 -30.9596 -30.9192
   -30.9192 -30.9179 -30.9179 -30.9164 -30.9164 -30.8918 -30.8898 -30.8898
    -9.2515  -7.8238  -7.7549  -7.7549   3.8569   3.8569   3.8687   6.3582
     6.3582   6.4446   6.4446   6.5534   6.5534   7.5343   7.7915   7.7915

          k = 0.0000 0.0000 0.2492 (  9807 PWs)   bands (ev):

   -64.2106 -64.2026 -64.2009 -64.2009 -30.9555 -30.9555 -30.9525 -30.9240
   -30.9240 -30.9186 -30.9186 -30.9133 -30.9133 -30.9007 -30.8929 -30.8929
    -9.0874  -7.9935  -7.7324  -7.7324   4.0796   4.0796   4.1343   5.9596
     5.9596   6.2902   6.2902   6.6787   6.6787   6.8059   7.6222   7.6222

          k = 0.0000 0.0000 0.3738 (  9814 PWs)   bands (ev):

   -64.2087 -64.2044 -64.2009 -64.2009 -30.9483 -30.9483 -30.9415 -30.9312
   -30.9312 -30.9193 -30.9193 -30.9134 -30.9086 -30.9086 -30.8975 -30.8975
    -8.8397  -8.2471  -7.7097  -7.7097   4.4372   4.4372   4.5840   5.4377
     5.4377   5.9765   6.1415   6.1415   6.8745   6.8745   7.3829   7.3829

          k = 0.0000 0.0000-0.4984 (  9890 PWs)   bands (ev):

   -64.2066 -64.2066 -64.2009 -64.2009 -30.9397 -30.9397 -30.9397 -30.9397
   -30.9278 -30.9278 -30.9196 -30.9196 -30.9031 -30.9031 -30.9031 -30.9031
    -8.5447  -8.5447  -7.7003  -7.7003   4.9049   4.9049   4.9049   4.9049
     5.2097   5.2097   6.0814   6.0814   7.1198   7.1198   7.1198   7.1198

          k = 0.0000 0.1246 0.1246 (  9811 PWs)   bands (ev):

   -64.2114 -64.2013 -64.2013 -64.2009 -30.9587 -30.9584 -30.9584 -30.9232
   -30.9181 -30.9181 -30.9165 -30.9165 -30.9157 -30.8967 -30.8909 -30.8890
    -9.1954  -7.8118  -7.8118  -7.7480   3.9284   3.9284   3.9318   6.0548
     6.4039   6.4039   6.4993   6.4993   6.5643   7.1983   7.7256   7.8080

          k = 0.0000 0.1246 0.2492 (  9819 PWs)   bands (ev):

   -64.2102 -64.2025 -64.2013 -64.2010 -30.9548 -30.9539 -30.9525 -30.9292
   -30.9228 -30.9166 -30.9149 -30.9146 -30.9127 -30.9061 -30.8941 -30.8908
    -9.0348  -7.9741  -7.7814  -7.7323   4.1026   4.1512   4.1527   5.6118
     6.0118   6.3794   6.5311   6.5323   6.5373   6.6544   7.5442   7.6829

          k = 0.0000 0.1246 0.3738 (  9811 PWs)   bands (ev):

   -64.2084 -64.2043 -64.2012 -64.2010 -30.9494 -30.9467 -30.9431 -30.9360
   -30.9299 -30.9183 -30.9163 -30.9149 -30.9101 -30.9072 -30.8988 -30.8952
    -8.7930  -8.2181  -7.7470  -7.7203   4.3773   4.5073   4.5402   5.1535
     5.4971   5.7837   6.2859   6.4009   6.7459   6.8867   7.2883   7.4464

          k = 0.0000 0.1246-0.4984 (  9828 PWs)   bands (ev):

   -64.2063 -64.2063 -64.2011 -64.2011 -30.9429 -30.9429 -30.9383 -30.9383
   -30.9312 -30.9312 -30.9157 -30.9157 -30.9044 -30.9044 -30.9010 -30.9010
    -8.5060  -8.5060  -7.7240  -7.7240   4.7338   4.7338   4.9704   4.9704
     5.0949   5.0949   6.2922   6.2922   7.0074   7.0074   7.1640   7.1640

          k = 0.0000 0.2492 0.2492 (  9769 PWs)   bands (ev):

   -64.2091 -64.2023 -64.2023 -64.2012 -30.9521 -30.9521 -30.9493 -30.9364
   -30.9194 -30.9194 -30.9163 -30.9113 -30.9113 -30.9106 -30.8974 -30.8902
    -8.8848  -7.9228  -7.9228  -7.7364   4.2021   4.2021   4.3682   5.1410
     5.9664   6.1643   6.1643   6.6140   6.6140   6.7177   7.3305   7.6759

          k = 0.0000 0.2492 0.3738 (  9818 PWs)   bands (ev):

   -64.2076 -64.2039 -64.2020 -64.2014 -30.9508 -30.9467 -30.9429 -30.9424
   -30.9277 -30.9263 -30.9144 -30.9096 -30.9085 -30.9044 -30.9024 -30.8926
    -8.6608  -8.1387  -7.8566  -7.7550   4.2966   4.4335   4.7134   4.7436
     5.3572   5.6710   6.4037   6.6160   6.7414   6.9251   7.0313   7.5158

          k = 0.0000 0.2492-0.4984 (  9844 PWs)   bands (ev):

   -64.2057 -64.2057 -64.2017 -64.2017 -30.9478 -30.9478 -30.9383 -30.9383
   -30.9343 -30.9343 -30.9084 -30.9084 -30.9084 -30.9084 -30.8978 -30.8978
    -8.3982  -8.3982  -7.7959  -7.7959   4.4649   4.4649   4.8246   4.8246
     5.1627   5.1627   6.6762   6.6762   6.7052   6.7052   7.2457   7.2457

          k = 0.0000 0.3738 0.3738 (  9827 PWs)   bands (ev):

   -64.2063 -64.2033 -64.2033 -64.2020 -30.9497 -30.9497 -30.9482 -30.9374
   -30.9360 -30.9208 -30.9208 -30.9079 -30.9039 -30.9022 -30.9022 -30.8929
    -8.4662  -8.0290  -8.0290  -7.8198   4.3309   4.3309   4.4471   4.9006
     5.0423   5.9454   5.9454   6.6760   6.9462   6.9791   6.9791   7.4682

          k = 0.0000 0.3738-0.4984 (  9802 PWs)   bands (ev):

   -64.2048 -64.2048 -64.2026 -64.2026 -30.9505 -30.9505 -30.9451 -30.9451
   -30.9284 -30.9284 -30.9143 -30.9143 -30.9018 -30.9018 -30.8963 -30.8963
    -8.2431  -8.2431  -7.9151  -7.9151   4.3147   4.3147   4.5364   4.5364
     5.4680   5.4680   6.2943   6.2943   7.0074   7.0074   7.2809   7.2809

          k = 0.0000-0.4984-0.4984 (  9748 PWs)   bands (ev):

   -64.2037 -64.2037 -64.2037 -64.2037 -30.9495 -30.9495 -30.9495 -30.9495
   -30.9213 -30.9213 -30.9213 -30.9213 -30.8976 -30.8976 -30.8976 -30.8976
    -8.0717  -8.0717  -8.0717  -8.0716   4.3435   4.3435   4.3435   4.3435
     5.8598   5.8598   5.8598   5.8599   7.2115   7.2115   7.2115   7.2115

          k = 0.1246 0.1246 0.1246 (  9819 PWs)   bands (ev):

   -64.2110 -64.2013 -64.2013 -64.2013 -30.9573 -30.9573 -30.9573 -30.9214
   -30.9214 -30.9214 -30.9146 -30.9146 -30.9146 -30.9015 -30.8900 -30.8900
    -9.1404  -7.8020  -7.8020  -7.8020   3.9829   3.9829   3.9829   6.1333
     6.1333   6.1333   6.6046   6.6046   6.6046   6.8864   7.7519   7.7519

          k = 0.1246 0.1246 0.2492 (  9822 PWs)   bands (ev):

   -64.2098 -64.2025 -64.2013 -64.2013 -30.9542 -30.9542 -30.9529 -30.9262
   -30.9262 -30.9164 -30.9135 -30.9135 -30.9117 -30.9113 -30.8929 -30.8912
    -8.9834  -7.9570  -7.7784  -7.7784   4.1365   4.1365   4.1530   5.7406
     5.7406   6.2597   6.3504   6.5807   6.5807   6.7219   7.5968   7.6407

          k = 0.1246 0.1246 0.3738 (  9809 PWs)   bands (ev):

   -64.2081 -64.2041 -64.2013 -64.2013 -30.9503 -30.9503 -30.9453 -30.9311
   -30.9311 -30.9231 -30.9132 -30.9132 -30.9094 -30.9074 -30.8972 -30.8955
    -8.7477  -8.1911  -7.7545  -7.7545   4.3494   4.3494   4.4732   5.3709
     5.3709   5.5737   6.4811   6.4811   6.6636   6.9048   7.3717   7.3766

          k = 0.1246 0.1246-0.4984 (  9844 PWs)   bands (ev):

   -64.2061 -64.2061 -64.2013 -64.2013 -30.9481 -30.9481 -30.9350 -30.9350
   -30.9336 -30.9336 -30.9132 -30.9132 -30.9023 -30.9023 -30.9020 -30.9020
    -8.4691  -8.4691  -7.7446  -7.7446   4.4830   4.4830   4.9552   4.9552
     5.1854   5.1854   6.4287   6.4287   7.0228   7.0228   7.1331   7.1331

          k = 0.1246 0.2492 0.2492 (  9801 PWs)   bands (ev):

   -64.2088 -64.2023 -64.2023 -64.2015 -30.9536 -30.9536 -30.9532 -30.9301
   -30.9216 -30.9194 -30.9194 -30.9100 -30.9100 -30.9098 -30.8952 -30.8909
    -8.8374  -7.9120  -7.9120  -7.7743   4.1558   4.1558   4.2086   5.4182
     5.7054   6.0565   6.0565   6.7220   6.7220   6.7499   7.4382   7.6344

          k = 0.1246 0.2492 0.3738 (  9792 PWs)   bands (ev):

   -64.2073 -64.2038 -64.2021 -64.2016 -30.9541 -30.9531 -30.9500 -30.9329
   -30.9306 -30.9235 -30.9119 -30.9084 -30.9078 -30.9046 -30.8996 -30.8933
    -8.6200  -8.1175  -7.8559  -7.7809   4.1643   4.2357   4.3092   5.1239
     5.3131   5.7468   6.4463   6.7013   6.7764   6.9434   7.1702   7.4769

          k = 0.1246 0.2492-0.4984 (  9822 PWs)   bands (ev):

   -64.2056 -64.2056 -64.2019 -64.2019 -30.9538 -30.9538 -30.9429 -30.9429
   -30.9278 -30.9278 -30.9074 -30.9074 -30.9053 -30.9053 -30.8984 -30.8984
    -8.3663  -8.3663  -7.8081  -7.8081   4.1966   4.1966   4.6372   4.6372
     5.4654   5.4654   6.7294   6.7294   6.8318   6.8318   7.2158   7.2158

          k = 0.1246 0.3738 0.3738 (  9808 PWs)   bands (ev):

   -64.2061 -64.2033 -64.2033 -64.2021 -30.9558 -30.9544 -30.9544 -30.9428
   -30.9271 -30.9165 -30.9165 -30.9042 -30.9035 -30.9021 -30.9021 -30.8933
    -8.4328  -8.0172  -8.0172  -7.8336   4.0947   4.1376   4.1376   4.6605
     5.4795   6.1313   6.1313   6.8677   6.9648   6.9949   6.9949   7.4470

          k = 0.1246 0.3738-0.4984 (  9794 PWs)   bands (ev):

   -64.2047 -64.2047 -64.2027 -64.2027 -30.9565 -30.9565 -30.9504 -30.9504
   -30.9219 -30.9219 -30.9100 -30.9100 -30.9016 -30.9016 -30.8965 -30.8965
    -8.2197  -8.2196  -7.9155  -7.9155   4.0503   4.0503   4.3094   4.3094
     5.7825   5.7825   6.5097   6.5097   7.0223   7.0223   7.2700   7.2700

          k = 0.1246-0.4984-0.4984 (  9796 PWs)   bands (ev):

[...]
     Harris-Foulkes estimate   =    -606.91738280 Ry
     estimated scf accuracy    <       0.00004533 Ry

     iteration #  5     ecut=   110.00 Ry     beta= 0.70
     Davidson diagonalization with overlap
     ethr =  7.08E-08,  avg # of iterations =  2.6

     total cpu time spent up to now is      178.1 secs

     total energy              =    -606.91737632 Ry
     Harris-Foulkes estimate   =    -606.91737661 Ry
     estimated scf accuracy    <       0.00000552 Ry

     iteration #  6     ecut=   110.00 Ry     beta= 0.70
     Davidson diagonalization with overlap
     ethr =  8.62E-09,  avg # of iterations =  2.2

     total cpu time spent up to now is      180.3 secs

     total energy              =    -606.91737702 Ry
     Harris-Foulkes estimate   =    -606.91737726 Ry
     estimated scf accuracy    <       0.00000043 Ry

     iteration #  7     ecut=   110.00 Ry     beta= 0.70
     Davidson diagonalization with overlap
     ethr =  6.67E-10,  avg # of iterations =  2.0

     total cpu time spent up to now is      182.7 secs

     total energy              =    -606.91737708 Ry
     Harris-Foulkes estimate   =    -606.91737709 Ry
     estimated scf accuracy    <       0.00000002 Ry

     iteration #  8     ecut=   110.00 Ry     beta= 0.70
     Davidson diagonalization with overlap
     ethr =  2.83E-11,  avg # of iterations =  2.0

     total cpu time spent up to now is      184.6 secs

     total energy              =    -606.91737708 Ry
     Harris-Foulkes estimate   =    -606.91737708 Ry
     estimated scf accuracy    <          1.4E-09 Ry

     iteration #  9     ecut=   110.00 Ry     beta= 0.70
     Davidson diagonalization with overlap
     ethr =  2.13E-12,  avg # of iterations =  2.2

     total cpu time spent up to now is      186.6 secs

     total energy              =    -606.91737708 Ry
     Harris-Foulkes estimate   =    -606.91737708 Ry
     estimated scf accuracy    <          4.2E-10 Ry

     iteration # 10     ecut=   110.00 Ry     beta= 0.70
     Davidson diagonalization with overlap
     ethr =  6.59E-13,  avg # of iterations =  2.0

     total cpu time spent up to now is      188.7 secs

     total energy              =    -606.91737708 Ry
     Harris-Foulkes estimate   =    -606.91737708 Ry
     estimated scf accuracy    <          2.0E-11 Ry

     iteration # 11     ecut=   110.00 Ry     beta= 0.70
     Davidson diagonalization with overlap
     ethr =  1.00E-13,  avg # of iterations =  1.2

     total cpu time spent up to now is      190.3 secs

     End of self-consistent calculation

          k = 0.0000 0.0000 0.0000 (  9843 PWs)   bands (ev):

   -64.1440 -64.1324 -64.1324 -64.1324 -30.8954 -30.8954 -30.8954 -30.8501
   -30.8501 -30.8501 -30.8501 -30.8501 -30.8501 -30.8207 -30.8207 -30.8207
    -9.2774  -7.7201  -7.7201  -7.7201   3.8173   3.8173   3.8173   6.5577
     6.5577   6.5577   6.5577   6.5577   6.5577   7.9062   7.9062   7.9062

          k = 0.0000 0.0000 0.1248 (  9847 PWs)   bands (ev):

   -64.1435 -64.1329 -64.1324 -64.1324 -30.8937 -30.8937 -30.8929 -30.8518
   -30.8518 -30.8504 -30.8504 -30.8490 -30.8490 -30.8240 -30.8218 -30.8218
    -9.2196  -7.7802  -7.7107  -7.7107   3.8930   3.8930   3.9051   6.4046
     6.4046   6.4916   6.4916   6.6009   6.6009   7.5875   7.8445   7.8445

          k = 0.0000 0.0000 0.2495 (  9863 PWs)   bands (ev):

   -64.1423 -64.1341 -64.1324 -64.1324 -30.8887 -30.8887 -30.8857 -30.8567
   -30.8567 -30.8512 -30.8512 -30.8458 -30.8458 -30.8329 -30.8250 -30.8250
    -9.0542  -7.9513  -7.6879  -7.6879   4.1164   4.1164   4.1727   6.0039
     6.0039   6.3365   6.3365   6.7266   6.7266   6.8577   7.6743   7.6743

          k = 0.0000 0.0000 0.3743 (  9890 PWs)   bands (ev):

   -64.1404 -64.1360 -64.1324 -64.1324 -30.8814 -30.8814 -30.8745 -30.8640
   -30.8640 -30.8519 -30.8519 -30.8459 -30.8410 -30.8410 -30.8298 -30.8298
    -8.8045  -8.2070  -7.6649  -7.6649   4.4753   4.4753   4.6253   5.4796
     5.4796   6.0252   6.1871   6.1871   6.9232   6.9232   7.4339   7.4339

          k = 0.0000 0.0000-0.4991 (  9890 PWs)   bands (ev):

   -64.1382 -64.1382 -64.1324 -64.1324 -30.8727 -30.8727 -30.8727 -30.8727
   -30.8606 -30.8606 -30.8522 -30.8522 -30.8354 -30.8354 -30.8354 -30.8354
    -8.5071  -8.5071  -7.6553  -7.6553   4.9447   4.9447   4.9447   4.9447
     5.2546   5.2546   6.1268   6.1268   7.1695   7.1695   7.1695   7.1695

          k = 0.0000 0.1248 0.1248 (  9853 PWs)   bands (ev):

   -64.1431 -64.1328 -64.1328 -64.1324 -30.8919 -30.8916 -30.8916 -30.8559
   -30.8507 -30.8507 -30.8490 -30.8490 -30.8482 -30.8289 -30.8230 -30.8210
    -9.1630  -7.7680  -7.7680  -7.7037   3.9650   3.9650   3.9681   6.1001
     6.4506   6.4506   6.5465   6.5465   6.6116   7.2510   7.7782   7.8608

          k = 0.0000 0.1248 0.2495 (  9852 PWs)   bands (ev):

   -64.1419 -64.1340 -64.1328 -64.1325 -30.8880 -30.8871 -30.8857 -30.8619
   -30.8555 -30.8491 -30.8474 -30.8471 -30.8452 -30.8385 -30.8262 -30.8229
    -9.0011  -7.9318  -7.7373  -7.6877   4.1398   4.1896   4.1897   5.6550
     6.0564   6.4259   6.5793   6.5820   6.5844   6.7021   7.5958   7.7350

          k = 0.0000 0.1248 0.3743 (  9872 PWs)   bands (ev):

   -64.1401 -64.1358 -64.1327 -64.1325 -30.8825 -30.8798 -30.8762 -30.8688
   -30.8627 -30.8508 -30.8489 -30.8474 -30.8425 -30.8396 -30.8310 -30.8273
    -8.7574  -8.1778  -7.7024  -7.6754   4.4155   4.5455   4.5813   5.1947
     5.5393   5.8316   6.3319   6.4472   6.7938   6.9352   7.3387   7.4973

          k = 0.0000 0.1248-0.4991 (  9872 PWs)   bands (ev):

   -64.1380 -64.1380 -64.1326 -64.1326 -30.8759 -30.8759 -30.8712 -30.8712
   -30.8641 -30.8641 -30.8482 -30.8482 -30.8368 -30.8368 -30.8333 -30.8333
    -8.4681  -8.4681  -7.6791  -7.6791   4.7733   4.7733   5.0104   5.0104
     5.1394   5.1394   6.3380   6.3380   7.0565   7.0565   7.2137   7.2137

          k = 0.0000 0.2495 0.2495 (  9847 PWs)   bands (ev):

   -64.1408 -64.1339 -64.1339 -64.1327 -30.8853 -30.8853 -30.8824 -30.8693
   -30.8520 -30.8520 -30.8489 -30.8437 -30.8437 -30.8430 -30.8296 -30.8222
    -8.8499  -7.8798  -7.8798  -7.6917   4.2405   4.2405   4.4060   5.1824
     6.0153   6.2095   6.2095   6.6612   6.6612   6.7652   7.3810   7.7275

          k = 0.0000 0.2495 0.3743 (  9882 PWs)   bands (ev):

   -64.1392 -64.1354 -64.1336 -64.1329 -30.8840 -30.8798 -30.8760 -30.8754
   -30.8605 -30.8590 -30.8469 -30.8420 -30.8409 -30.8368 -30.8347 -30.8248
    -8.6241  -8.0976  -7.8129  -7.7104   4.3352   4.4740   4.7524   4.7835
     5.4034   5.7138   6.4498   6.6629   6.7887   6.9733   7.0803   7.5665

          k = 0.0000 0.2495-0.4991 (  9876 PWs)   bands (ev):

   -64.1373 -64.1373 -64.1332 -64.1332 -30.8809 -30.8809 -30.8713 -30.8713
   -30.8672 -30.8672 -30.8408 -30.8408 -30.8408 -30.8408 -30.8300 -30.8300
    -8.3592  -8.3592  -7.7516  -7.7516   4.5039   4.5039   4.8678   4.8678
     5.2034   5.2034   6.7232   6.7232   6.7527   6.7527   7.2952   7.2952

          k = 0.0000 0.3743 0.3743 (  9865 PWs)   bands (ev):

   -64.1379 -64.1349 -64.1349 -64.1335 -30.8829 -30.8829 -30.8813 -30.8703
   -30.8688 -30.8534 -30.8534 -30.8403 -30.8362 -30.8345 -30.8345 -30.8250
    -8.4278  -7.9867  -7.9867  -7.7757   4.3706   4.3706   4.4862   4.9444
     5.0825   5.9894   5.9894   6.7232   6.9941   7.0271   7.0271   7.5183

          k = 0.0000 0.3743-0.4991 (  9866 PWs)   bands (ev):

   -64.1364 -64.1364 -64.1342 -64.1342 -30.8836 -30.8836 -30.8782 -30.8782
   -30.8611 -30.8611 -30.8468 -30.8468 -30.8341 -30.8341 -30.8284 -30.8284
    -8.2027  -8.2027  -7.8718  -7.8718   4.3538   4.3538   4.5779   4.5779
     5.5098   5.5098   6.3397   6.3397   7.0554   7.0554   7.3301   7.3301

          k = 0.0000-0.4991-0.4991 (  9844 PWs)   bands (ev):

   -64.1353 -64.1353 -64.1353 -64.1353 -30.8827 -30.8827 -30.8827 -30.8827
   -30.8539 -30.8539 -30.8539 -30.8539 -30.8298 -30.8298 -30.8298 -30.8298
    -8.0297  -8.0297  -8.0297  -8.0297   4.3836   4.3836   4.3836   4.3836
     5.9033   5.9033   5.9033   5.9033   7.2602   7.2602   7.2602   7.2602

          k = 0.1248 0.1248 0.1248 (  9873 PWs)   bands (ev):

   -64.1427 -64.1328 -64.1328 -64.1328 -30.8905 -30.8905 -30.8905 -30.8540
   -30.8540 -30.8540 -30.8471 -30.8471 -30.8471 -30.8338 -30.8221 -30.8221
    -9.1076  -7.7581  -7.7581  -7.7581   4.0197   4.0197   4.0197   6.1787
     6.1787   6.1787   6.6521   6.6521   6.6521   6.9383   7.8044   7.8044

          k = 0.1248 0.1248 0.2495 (  9859 PWs)   bands (ev):

   -64.1415 -64.1340 -64.1328 -64.1328 -30.8874 -30.8874 -30.8861 -30.8589
   -30.8589 -30.8489 -30.8459 -30.8459 -30.8442 -30.8438 -30.8250 -30.8233
    -8.9493  -7.9144  -7.7342  -7.7342   4.1738   4.1738   4.1913   5.7842
     5.7842   6.3095   6.3966   6.6279   6.6279   6.7698   7.6486   7.6924

          k = 0.1248 0.1248 0.3743 (  9868 PWs)   bands (ev):

   -64.1398 -64.1357 -64.1328 -64.1328 -30.8835 -30.8835 -30.8784 -30.8639
   -30.8639 -30.8558 -30.8456 -30.8456 -30.8418 -30.8397 -30.8294 -30.8277
    -8.7117  -8.1505  -7.7100  -7.7100   4.3875   4.3875   4.5139   5.4127
     5.4127   5.6207   6.5276   6.5276   6.7109   6.9535   7.4221   7.4273

          k = 0.1248 0.1248-0.4991 (  9872 PWs)   bands (ev):

   -64.1378 -64.1378 -64.1328 -64.1328 -30.8813 -30.8813 -30.8679 -30.8679
   -30.8664 -30.8664 -30.8456 -30.8456 -30.8345 -30.8345 -30.8343 -30.8343
    -8.4308  -8.4308  -7.6999  -7.6999   4.5216   4.5216   4.9990   4.9990
     5.2263   5.2263   6.4750   6.4750   7.0716   7.0716   7.1826   7.1826

          k = 0.1248 0.2495 0.2495 (  9868 PWs)   bands (ev):

   -64.1405 -64.1339 -64.1339 -64.1330 -30.8869 -30.8869 -30.8864 -30.8628
   -30.8543 -30.8520 -30.8520 -30.8425 -30.8425 -30.8422 -30.8273 -30.8230
    -8.8021  -7.8689  -7.8689  -7.7299   4.1940   4.1940   4.2461   5.4603
     5.7531   6.1011   6.1011   6.7696   6.7696   6.7975   7.4890   7.6858

          k = 0.1248 0.2495 0.3743 (  9878 PWs)   bands (ev):

   -64.1390 -64.1354 -64.1336 -64.1332 -30.8873 -30.8863 -30.8832 -30.8657
   -30.8634 -30.8562 -30.8444 -30.8408 -30.8401 -30.8370 -30.8318 -30.8254
    -8.5829  -8.0761  -7.8122  -7.7364   4.2023   4.2735   4.3490   5.1688
     5.3546   5.7899   6.4924   6.7485   6.8238   6.9917   7.2197   7.5274

          k = 0.1248 0.2495-0.4991 (  9866 PWs)   bands (ev):

   -64.1372 -64.1372 -64.1334 -64.1334 -30.8870 -30.8870 -30.8759 -30.8759
   -30.8605 -30.8605 -30.8398 -30.8398 -30.8376 -30.8376 -30.8306 -30.8306
    -8.3271  -8.3271  -7.7638  -7.7638   4.2344   4.2344   4.6794   4.6794
     5.5074   5.5074   6.7766   6.7766   6.8797   6.8797   7.2651   7.2651

          k = 0.1248 0.3743 0.3743 (  9853 PWs)   bands (ev):

   -64.1377 -64.1349 -64.1349 -64.1337 -30.8891 -30.8876 -30.8876 -30.8758
   -30.8598 -30.8490 -30.8490 -30.8366 -30.8358 -30.8344 -30.8344 -30.8254
    -8.3940  -7.9748  -7.9748  -7.7895   4.1321   4.1763   4.1763   4.7030
     5.5216   6.1760   6.1760   6.9157   7.0127   7.0430   7.0430   7.4970

          k = 0.1248 0.3743-0.4991 (  9854 PWs)   bands (ev):

   -64.1363 -64.1363 -64.1343 -64.1343 -30.8898 -30.8898 -30.8836 -30.8836
   -30.8545 -30.8545 -30.8424 -30.8424 -30.8338 -30.8338 -30.8287 -30.8287
    -8.1790  -8.1790  -7.8721  -7.8721   4.0881   4.0881   4.3496   4.3496
     5.8258   5.8258   6.5561   6.5561   7.0704   7.0704   7.3191   7.3191

          k = 0.1248-0.4991-0.4991 (  9848 PWs)   bands (ev):

   -64.1353 -64.1353 -64.1353 -64.1353 -30.8886 -30.8886 -30.8886 -30.8886
   -30.8483 -30.8483 -30.8483 -30.8483 -30.8298 -30.8298 -30.8298 -30.8298
    -8.0173  -8.0173  -8.0173  -8.0173   4.1305   4.1305   4.1305   4.1305
     6.1862   6.1862   6.1862   6.1862   7.2603   7.2603   7.2603   7.2603

          k = 0.2495 0.2495 0.2495 (  9849 PWs)   bands (ev):

   -64.1396 -64.1338 -64.1338 -64.1338 -30.8903 -30.8903 -30.8903 -30.8651
   -30.8518 -30.8518 -30.8518 -30.8399 -30.8399 -30.8399 -30.8252 -30.8252
    -8.6668  -7.8422  -7.8422  -7.8422   4.0714   4.0714   4.0714   5.2232
     5.9857   5.9857   5.9857   6.8911   6.8911   6.8911   7.5697   7.5697

          k = 0.2495 0.2495 0.3743 (  9853 PWs)   bands (ev):

   -64.1383 -64.1352 -64.1338 -64.1338 -30.8935 -30.8935 -30.8900 -30.8762
   -30.8514 -30.8514 -30.8410 -30.8378 -30.8378 -30.8365 -30.8286 -30.8267
    -8.4675  -8.0191  -7.8153  -7.8153   3.9388   3.9388   4.0733   4.6926
     5.9611   5.9611   6.5476   6.9261   6.9261   7.0360   7.4025   7.4228

          k = 0.2495 0.2495-0.4991 (  9854 PWs)   bands (ev):

   -64.1367 -64.1367 -64.1338 -64.1338 -30.8947 -30.8947 -30.8851 -30.8851
   -30.8512 -30.8512 -30.8370 -30.8370 -30.8325 -30.8325 -30.8322 -30.8322
    -8.2387  -8.2387  -7.8041  -7.8041   3.8822   3.8822   4.2875   4.2875
     5.9683   5.9683   6.9234   6.9234   7.0551   7.0551   7.2146   7.2146

          k = 0.2495 0.3743 0.3743 (  9865 PWs)   bands (ev):

   -64.1373 -64.1349 -64.1349 -64.1341 -30.8980 -30.8960 -30.8960 -30.8864
   -30.8473 -30.8416 -30.8416 -30.8346 -30.8340 -30.8340 -30.8310 -30.8266
    -8.3009  -7.9456  -7.9456  -7.8344   3.7335   3.8141   3.8141   4.2333
     6.1689   6.5137   6.5137   7.0664   7.0874   7.0874   7.2236   7.4370

          k = 0.2495 0.3743-0.4991 (  9860 PWs)   bands (ev):

   -64.1361 -64.1361 -64.1345 -64.1345 -30.8990 -30.8990 -30.8935 -30.8935
   -30.8441 -30.8441 -30.8352 -30.8352 -30.8330 -30.8330 -30.8294 -30.8294
    -8.1157  -8.1157  -7.8786  -7.8786   3.6851   3.6851   3.9189   3.9189
     6.3715   6.3715   6.9402   6.9402   7.1136   7.1136   7.2863   7.2863

          k = 0.2495-0.4991-0.4991 (  9836 PWs)   bands (ev):

   -64.1353 -64.1353 -64.1353 -64.1353 -30.8986 -30.8986 -30.8986 -30.8986
   -30.8390 -30.8390 -30.8390 -30.8390 -30.8298 -30.8298 -30.8298 -30.8298
    -7.9871  -7.9871  -7.9871  -7.9871   3.6989   3.6989   3.6989   3.6989
     6.6947   6.6947   6.6947   6.6947   7.2605   7.2605   7.2605   7.2605

          k = 0.3743 0.3743 0.3743 (  9841 PWs)   bands (ev):

   -64.1365 -64.1348 -64.1348 -64.1348 -30.9026 -30.9026 -30.9026 -30.8961
   -30.8370 -30.8370 -30.8370 -30.8327 -30.8327 -30.8327 -30.8284 -30.8284
    -8.1707  -7.9161  -7.9161  -7.9161   3.5268   3.5268   3.5268   3.8088
     6.7600   6.7600   6.7600   7.1482   7.1482   7.1482   7.3487   7.3487

          k = 0.3743 0.3743-0.4991 (  9846 PWs)   bands (ev):

   -64.1357 -64.1357 -64.1348 -64.1348 -30.9050 -30.9050 -30.9019 -30.9019
   -30.8360 -30.8360 -30.8316 -30.8316 -30.8306 -30.8306 -30.8304 -30.8304
    -8.0333  -8.0333  -7.9038  -7.9038   3.4207   3.4207   3.5546   3.5546
     6.8399   6.8399   7.1825   7.1825   7.1847   7.1847   7.2472   7.2472

          k = 0.3743-0.4991-0.4991 (  9876 PWs)   bands (ev):

   -64.1353 -64.1353 -64.1353 -64.1353 -30.9061 -30.9061 -30.9061 -30.9061
   -30.8322 -30.8322 -30.8322 -30.8322 -30.8297 -30.8297 -30.8297 -30.8297
    -7.9566  -7.9566  -7.9566  -7.9566   3.3737   3.3737   3.3737   3.3737
     7.1050   7.1050   7.1050   7.1050   7.2607   7.2607   7.2607   7.2607

          k =-0.4991-0.4991-0.4991 (  9952 PWs)   bands (ev):

   -64.1353 -64.1353 -64.1353 -64.1353 -30.9088 -30.9088 -30.9088 -30.9088
   -30.8297 -30.8297 -30.8297 -30.8297 -30.8297 -30.8297 -30.8297 -30.8297
    -7.9438  -7.9438  -7.9438  -7.9438   3.2560   3.2560   3.2560   3.2560
     7.2608   7.2608   7.2608   7.2608   7.2608   7.2608   7.2608   7.2608

     highest occupied level (ev):     7.9062

!    total energy              =    -606.91737708 Ry
     Harris-Foulkes estimate   =    -606.91737708 Ry
     estimated scf accuracy    <          1.0E-13 Ry

     The total energy is the sum of the following terms:

     one-electron contribution =    -297.68291203 Ry
     hartree contribution      =     165.58863636 Ry
     xc contribution           =     -96.27252126 Ry
     ewald contribution        =    -378.55058015 Ry

     convergence has been achieved in  11 iterations

     Forces acting on atoms (cartesian axes, Ry/au):

     atom    1 type  1   force =     0.00000000    0.00000000    0.00000000
     atom    2 type  1   force =     0.00000000    0.00000000    0.00000000
     atom    3 type  1   force =     0.00000000    0.00000000    0.00000000
     atom    4 type  1   force =     0.00000000    0.00000000    0.00000000
     atom    5 type  2   force =     0.00000000    0.00000000    0.00000000
     atom    6 type  2   force =     0.00000000    0.00000000    0.00000000
     atom    7 type  2   force =     0.00000000    0.00000000   -0.00000000
     atom    8 type  2   force =     0.00000000    0.00000000    0.00000000

     Total force =     0.000000     Total SCF correction =     0.000000


     Computing stress (Cartesian axis) and pressure

          total   stress  (Ry/bohr**3)                   (kbar)     P=   -0.01
  -0.00000004   0.00000000   0.00000000         -0.01      0.00      0.00
   0.00000000  -0.00000004   0.00000000          0.00     -0.01      0.00
   0.00000000   0.00000000  -0.00000004          0.00      0.00     -0.01


     Writing output data file MgO.save/
 
     init_run     :      1.75s CPU      1.92s WALL (       2 calls)
     electrons    :    174.39s CPU    179.18s WALL (       7 calls)
     update_pot   :      1.55s CPU      1.56s WALL (       5 calls)
     forces       :      2.14s CPU      2.15s WALL (       7 calls)
     stress       :      4.96s CPU      4.98s WALL (       7 calls)

     Called by init_run:
     wfcinit      :      1.37s CPU      1.44s WALL (       2 calls)
     potinit      :      0.13s CPU      0.14s WALL (       2 calls)
     hinit0       :      0.17s CPU      0.24s WALL (       2 calls)

     Called by electrons:
     c_bands      :    154.53s CPU    158.32s WALL (      79 calls)
     sum_band     :     19.12s CPU     19.74s WALL (      79 calls)
     v_of_rho     :      0.58s CPU      0.59s WALL (      85 calls)
     mix_rho      :      0.14s CPU      0.14s WALL (      79 calls)

     Called by c_bands:
     init_us_2    :      2.10s CPU      2.19s WALL (    6090 calls)
     cegterg      :    146.28s CPU    149.88s WALL (    2765 calls)

     Called by sum_band:

     Called by *egterg:
     h_psi        :    107.52s CPU    110.98s WALL (    8898 calls)
     g_psi        :      0.77s CPU      0.78s WALL (    6063 calls)
     cdiaghg      :     19.44s CPU     19.51s WALL (    8618 calls)

     Called by h_psi:
     h_psi:pot    :    106.82s CPU    110.27s WALL (    8898 calls)
     h_psi:calbec :      8.11s CPU      8.30s WALL (    8898 calls)
     vloc_psi     :     92.42s CPU     95.66s WALL (    8898 calls)
     add_vuspsi   :      6.21s CPU      6.26s WALL (    8898 calls)

     General routines
     calbec       :      9.18s CPU      9.38s WALL (   10123 calls)
     fft          :      0.40s CPU      0.45s WALL (    1024 calls)
     ffts         :      0.03s CPU      0.03s WALL (      79 calls)
     fftw         :    102.09s CPU    105.68s WALL (  581446 calls)
 
     Parallel routines
     fft_scatt_xy :     10.67s CPU     11.04s WALL (  582549 calls)
     fft_scatt_yz :     43.50s CPU     45.25s WALL (  582549 calls)
 
     PWSCF        :   3m 5.39s CPU   3m13.83s WALL

 
   This run was terminated on:  11:39:55  11Sep2020            

=------------------------------------------------------------------------------=
   JOB DONE.
=------------------------------------------------------------------------------=
Starting epilogue... Fri Sep 11 11:39:55 CEST 2020
=== JOB_STATISTICS ===
=== current date     : Fri Sep 11 11:39:55 CEST 2020
= Job-ID             : 1347260.eadm
= Job-Name           : MoS2.phon
= Queue              : devel
= PBS_O_WORKDIR      : /home/hpc/rzku/phyv025h/Exercise_sheet_2/Exercise_1
= Requested resources: ncpus=1,neednodes=1:ppn=40,nodes=1:ppn=40,walltime=01:00:00
= Used resources     : cput=01:04:19,mem=1822288kb,vmem=11236948kb,walltime=00:03:17
= Node list          : e0107
= AccessKey          : 13f8b130
======================
Power management available, setting all CPUs to ondemand govenor
End of epilogue: Fri Sep 11 11:39:56 CEST 2020
